ITEM: TIMESTEP
0
ITEM: NUMBER OF ATOMS
5
ITEM: BOX BOUNDS ff ff ff
-5.00000000    5.00000000     
-5.00000000    5.00000000     
-5.00000000    5.00000000     
ITEM: ATOMS id type q x y z mux muy muz
      1   1    1.0000       2.542336       4.183903       4.509185      -0.001128      -0.925179      -0.379530
      2   2   -1.0000       0.771256      -1.428149       2.875739      -0.870311       0.138247       0.472701
      3   1    1.0000      -2.490138       0.640903      -1.414297       0.275265       0.330955       0.902606
      4   2   -1.0000       1.566309      -2.596163      -3.083637       0.437147       0.199500      -0.876985
      5   2   -1.0000       4.182827      -3.982251       0.059081      -0.313153       0.919411       0.237948
ITEM: TIMESTEP
100
ITEM: NUMBER OF ATOMS
5
ITEM: BOX BOUNDS ff ff ff
-5.00000000    5.00000000     
-5.00000000    5.00000000     
-5.00000000    5.00000000     
ITEM: ATOMS id type q x y z mux muy muz
      1   1    1.0000       2.511029       4.147498       4.498985       0.243264      -0.921535      -0.302648
      2   2   -1.0000       0.774132      -1.363818       2.900802      -0.870876       0.134473       0.472749
      3   1    1.0000      -2.505115       0.656937      -1.422531       0.277297       0.352283       0.893870
      4   2   -1.0000       1.565836      -2.611129      -3.040496       0.430268       0.208246      -0.878353
      5   2   -1.0000       4.226709      -4.011246       0.009311      -0.321927       0.914660       0.244459
ITEM: TIMESTEP
200
ITEM: NUMBER OF ATOMS
5
ITEM: BOX BOUNDS ff ff ff
-5.00000000    5.00000000     
-5.00000000    5.00000000     
-5.00000000    5.00000000     
ITEM: ATOMS id type q x y z mux muy muz
      1   1    1.0000       2.479907       4.110791       4.488691       0.472247      -0.857202      -0.205396
      2   2   -1.0000       0.776661      -1.298938       2.926251      -0.872527       0.125520       0.472167
      3   1    1.0000      -2.519586       0.672352      -1.430795       0.283175       0.364855       0.886957
      4   2   -1.0000       1.564730      -2.625499      -2.997954       0.429951       0.211337      -0.877769
      5   2   -1.0000       4.270879      -4.040465      -0.040123      -0.333351       0.909859       0.247052
ITEM: TIMESTEP
300
ITEM: NUMBER OF ATOMS
5
ITEM: BOX BOUNDS ff ff ff
-5.00000000    5.00000000     
-5.00000000    5.00000000     
-5.00000000    5.00000000     
ITEM: ATOMS id type q x y z mux muy muz
      1   1    1.0000       2.448960       4.073789       4.478296       0.669723      -0.736569      -0.094540
      2   2   -1.0000       0.778865      -1.233536       2.952071      -0.874938       0.112518       0.470981
      3   1    1.0000      -2.533549       0.687158      -1.439074       0.292095       0.370531       0.881696
      4   2   -1.0000       1.562994      -2.639277      -2.956006       0.434740       0.210078      -0.875710
      5   2   -1.0000       4.315321      -4.069892      -0.089216      -0.346782       0.904961       0.246551
ITEM: TIMESTEP
400
ITEM: NUMBER OF ATOMS
5
ITEM: BOX BOUNDS ff ff ff
-5.00000000    5.00000000     
-5.00000000    5.00000000     
-5.00000000    5.00000000     
ITEM: ATOMS id type q x y z mux muy muz
      1   1    1.0000       2.418177       4.036503       4.467796       0.822435      -0.568425       0.022208
      2   2   -1.0000       0.780764      -1.167641       2.978245      -0.877807       0.096386       0.469217
      3   1    1.0000      -2.547002       0.701363      -1.447354       0.303376       0.370774       0.877775
      4   2   -1.0000       1.560630      -2.652471      -2.914647       0.443484       0.205425      -0.872423
      5   2   -1.0000       4.360021      -4.099512      -0.137971      -0.361699       0.899899       0.243628
ITEM: TIMESTEP
500
ITEM: NUMBER OF ATOMS
5
ITEM: BOX BOUNDS ff ff ff
-5.00000000    5.00000000     
-5.00000000    5.00000000     
-5.00000000    5.00000000     
ITEM: ATOMS id type q x y z mux muy muz
      1   1    1.0000       2.387546       3.998951       4.457190       0.920949      -0.364816       0.136973
      2   2   -1.0000       0.782377      -1.101281       3.004756      -0.880870       0.077869       0.466909
      3   1    1.0000      -2.559940       0.714975      -1.455618       0.316458       0.366722       0.874854
      4   2   -1.0000       1.557643      -2.665092      -2.873864       0.455274       0.198095      -0.868035
      5   2   -1.0000       4.404965      -4.129310      -0.186394      -0.377672       0.894606       0.238838
ITEM: TIMESTEP
600
ITEM: NUMBER OF ATOMS
5
ITEM: BOX BOUNDS ff ff ff
-5.00000000    5.00000000     
-5.00000000    5.00000000     
-5.00000000    5.00000000     
ITEM: ATOMS id type q x y z mux muy muz
      1   1    1.0000       2.357056       3.961155       4.446478       0.960064      -0.139794       0.242352
      2   2   -1.0000       0.783717      -1.034487       3.031584      -0.883905       0.057589       0.464108
      3   1    1.0000      -2.572357       0.727999      -1.463856       0.330882       0.359260       0.872611
      4   2   -1.0000       1.554038      -2.677151      -2.833641       0.469386       0.188631      -0.862609
      5   2   -1.0000       4.450138      -4.159273      -0.234494      -0.394339       0.889028       0.232649
ITEM: TIMESTEP
700
ITEM: NUMBER OF ATOMS
5
ITEM: BOX BOUNDS ff ff ff
-5.00000000    5.00000000     
-5.00000000    5.00000000     
-5.00000000    5.00000000     
ITEM: ATOMS id type q x y z mux muy muz
      1   1    1.0000       2.326698       3.923139       4.435664       0.938825       0.091817       0.331931
      2   2   -1.0000       0.784797      -0.967287       3.058710      -0.886728       0.036060       0.460883
      3   1    1.0000      -2.584250       0.740441      -1.472057       0.346274       0.349083       0.870767
      4   2   -1.0000       1.549821      -2.688661      -2.793961       0.485231       0.177466      -0.856187
      5   2   -1.0000       4.495524      -4.189390      -0.282287      -0.411386       0.883136       0.225461
ITEM: TIMESTEP
800
ITEM: NUMBER OF ATOMS
5
ITEM: BOX BOUNDS ff ff ff
-5.00000000    5.00000000     
-5.00000000    5.00000000     
-5.00000000    5.00000000     
ITEM: ATOMS id type q x y z mux muy muz
      1   1    1.0000       2.296469       3.884927       4.424756       0.860188       0.315535       0.400644
      2   2   -1.0000       0.785623      -0.899706       3.086114      -0.889198       0.013710       0.457317
      3   1    1.0000      -2.595613       0.752305      -1.480211       0.362320       0.336747       0.869095
      4   2   -1.0000       1.545000      -2.699637      -2.754802       0.502320       0.164948      -0.848803
      5   2   -1.0000       4.541111      -4.219647      -0.329787      -0.428536       0.876925       0.217621
ITEM: TIMESTEP
900
ITEM: NUMBER OF ATOMS
5
ITEM: BOX BOUNDS ff ff ff
-5.00000000    5.00000000     
-5.00000000    5.00000000     
-5.00000000    5.00000000     
ITEM: ATOMS id type q x y z mux muy muz
      1   1    1.0000       2.266369       3.846545       4.413762       0.730436       0.518136       0.444969
      2   2   -1.0000       0.786197      -0.831769       3.113778      -0.891207      -0.009121       0.453505
      3   1    1.0000      -2.606442       0.763596      -1.488314       0.378758       0.322708       0.867411
      4   2   -1.0000       1.539581      -2.710094      -2.716141       0.520238       0.151372      -0.840499
      5   2   -1.0000       4.586886      -4.250036      -0.377014      -0.445548       0.870416       0.209434
ITEM: TIMESTEP
1000
ITEM: NUMBER OF ATOMS
5
ITEM: BOX BOUNDS ff ff ff
-5.00000000    5.00000000     
-5.00000000    5.00000000     
-5.00000000    5.00000000     
ITEM: ATOMS id type q x y z mux muy muz
      1   1    1.0000       2.236405       3.808012       4.402692       0.558448       0.688322       0.462977
      2   2   -1.0000       0.786515      -0.763494       3.141681      -0.892679      -0.032184       0.449542
      3   1    1.0000      -2.616736       0.774316      -1.496361       0.395368       0.307341       0.865578
      4   2   -1.0000       1.533573      -2.720045      -2.677956       0.538635       0.136988      -0.831328
      5   2   -1.0000       4.632834      -4.280546      -0.423986      -0.462215       0.863650       0.201162
ITEM: TIMESTEP
1100
ITEM: NUMBER OF ATOMS
5
ITEM: BOX BOUNDS ff ff ff
-5.00000000    5.00000000     
-5.00000000    5.00000000     
-5.00000000    5.00000000     
ITEM: ATOMS id type q x y z mux muy muz
      1   1    1.0000       2.206590       3.769344       4.391559       0.354930       0.817112       0.454260
      2   2   -1.0000       0.786569      -0.694894       3.169808      -0.893563      -0.055321       0.445517
      3   1    1.0000      -2.626494       0.784465      -1.504353       0.411964       0.290966       0.863496
      4   2   -1.0000       1.526982      -2.729505      -2.640224       0.557211       0.122012      -0.821358
      5   2   -1.0000       4.678943      -4.311167      -0.470720      -0.478362       0.856686       0.193025
ITEM: TIMESTEP
1200
ITEM: NUMBER OF ATOMS
5
ITEM: BOX BOUNDS ff ff ff
-5.00000000    5.00000000     
-5.00000000    5.00000000     
-5.00000000    5.00000000     
ITEM: ATOMS id type q x y z mux muy muz
      1   1    1.0000       2.176944       3.730548       4.380373       0.131719       0.898015       0.419784
      2   2   -1.0000       0.786347      -0.625978       3.198140      -0.893822      -0.078474       0.441502
      3   1    1.0000      -2.635714       0.794044      -1.512290       0.428395       0.273849       0.861095
      4   2   -1.0000       1.519817      -2.738484      -2.602923       0.575713       0.106628      -0.810670
      5   2   -1.0000       4.725198      -4.341888      -0.517230      -0.493854       0.849593       0.185204
ITEM: TIMESTEP
1300
ITEM: NUMBER OF ATOMS
5
ITEM: BOX BOUNDS ff ff ff
-5.00000000    5.00000000     
-5.00000000    5.00000000     
-5.00000000    5.00000000     
ITEM: ATOMS id type q x y z mux muy muz
      1   1    1.0000       2.147494       3.691624       4.369144      -0.098791       0.927041       0.361713
      2   2   -1.0000       0.785832      -0.556744       3.226662      -0.893431      -0.101678       0.437541
      3   1    1.0000      -2.644400       0.803053      -1.520176       0.444539       0.256214       0.858335
      4   2   -1.0000       1.512083      -2.746993      -2.566033       0.593934       0.090992      -0.799351
      5   2   -1.0000       4.771582      -4.372697      -0.563527      -0.508588       0.842444       0.177837
ITEM: TIMESTEP
1400
ITEM: NUMBER OF ATOMS
5
ITEM: BOX BOUNDS ff ff ff
-5.00000000    5.00000000     
-5.00000000    5.00000000     
-5.00000000    5.00000000     
ITEM: ATOMS id type q x y z mux muy muz
      1   1    1.0000       2.118276       3.652555       4.357880      -0.324080       0.902629       0.283253
      2   2   -1.0000       0.785004      -0.487186       3.255361      -0.892362      -0.125067       0.433645
      3   1    1.0000      -2.652551       0.811490      -1.528015       0.460306       0.238248       0.855194
      4   2   -1.0000       1.503789      -2.755039      -2.529537       0.611709       0.075230      -0.787498
      5   2   -1.0000       4.818074      -4.403579      -0.609618      -0.522500       0.835311       0.171022
ITEM: TIMESTEP
1500
ITEM: NUMBER OF ATOMS
5
ITEM: BOX BOUNDS ff ff ff
-5.00000000    5.00000000     
-5.00000000    5.00000000     
-5.00000000    5.00000000     
ITEM: ATOMS id type q x y z mux muy muz
      1   1    1.0000       2.089329       3.613314       4.346585      -0.531816       0.825608       0.188528
      2   2   -1.0000       0.783843      -0.417286       3.284223      -0.890580      -0.148857       0.429778
      3   1    1.0000      -2.660172       0.819355      -1.535813       0.475629       0.220102       0.851665
      4   2   -1.0000       1.494944      -2.762626      -2.493423       0.628909       0.059440      -0.775203
      5   2   -1.0000       4.864648      -4.434514      -0.655501      -0.535558       0.828259       0.164820
ITEM: TIMESTEP
1600
ITEM: NUMBER OF ATOMS
5
ITEM: BOX BOUNDS ff ff ff
-5.00000000    5.00000000     
-5.00000000    5.00000000     
-5.00000000    5.00000000     
ITEM: ATOMS id type q x y z mux muy muz
      1   1    1.0000       2.060697       3.573856       4.335259      -0.710134       0.699215       0.082509
      2   2   -1.0000       0.782329      -0.347018       3.313237      -0.888030      -0.173339       0.425860
      3   1    1.0000      -2.667266       0.826645      -1.543575       0.490465       0.201892       0.847752
      4   2   -1.0000       1.485557      -2.769758      -2.457685       0.645443       0.043694      -0.762558
      5   2   -1.0000       4.911274      -4.465482      -0.701167      -0.547757       0.821340       0.159256
ITEM: TIMESTEP
1700
ITEM: NUMBER OF ATOMS
5
ITEM: BOX BOUNDS ff ff ff
-5.00000000    5.00000000     
-5.00000000    5.00000000     
-5.00000000    5.00000000     
ITEM: ATOMS id type q x y z mux muy muz
      1   1    1.0000       2.032430       3.534116       4.323895      -0.847986       0.529222      -0.029048
      2   2   -1.0000       0.780447      -0.276346       3.342396      -0.884635      -0.198862       0.421753
      3   1    1.0000      -2.673837       0.833359      -1.551304       0.504794       0.183710       0.843465
      4   2   -1.0000       1.475641      -2.776434      -2.422320       0.661247       0.028041      -0.749644
      5   2   -1.0000       4.957910      -4.496452      -0.746596      -0.559119       0.814598       0.154329
ITEM: TIMESTEP
1800
ITEM: NUMBER OF ATOMS
5
ITEM: BOX BOUNDS ff ff ff
-5.00000000    5.00000000     
-5.00000000    5.00000000     
-5.00000000    5.00000000     
ITEM: ATOMS id type q x y z mux muy muz
      1   1    1.0000       2.004573       3.494011       4.312479      -0.935651       0.324106      -0.139687
      2   2   -1.0000       0.778188      -0.205221       3.371690      -0.880286      -0.225808       0.417262
      3   1    1.0000      -2.679887       0.839495      -1.559004       0.518609       0.165617       0.838818
      4   2   -1.0000       1.465210      -2.782652      -2.387335       0.676283       0.012508      -0.736535
      5   2   -1.0000       4.995494      -4.527390      -0.791759      -0.569682       0.808058       0.150014
ITEM: TIMESTEP
1900
ITEM: NUMBER OF ATOMS
5
ITEM: BOX BOUNDS ff ff ff
-5.00000000    5.00000000     
-5.00000000    5.00000000     
-5.00000000    5.00000000     
ITEM: ATOMS id type q x y z mux muy muz
      1   1    1.0000       1.977164       3.453432       4.300987      -0.965491       0.095139      -0.242439
      2   2   -1.0000       0.775555      -0.133579       3.401120      -0.874840      -0.254566       0.412131
      3   1    1.0000      -2.685423       0.845054      -1.566676       0.531920       0.147654       0.833822
      4   2   -1.0000       1.454280      -2.788406      -2.352741       0.690544      -0.002918      -0.723284
      5   2   -1.0000       4.949279      -4.558259      -0.836619      -0.579512       0.801732       0.146259
ITEM: TIMESTEP
2000
ITEM: NUMBER OF ATOMS
5
ITEM: BOX BOUNDS ff ff ff
-5.00000000    5.00000000     
-5.00000000    5.00000000     
-5.00000000    5.00000000     
ITEM: ATOMS id type q x y z mux muy muz
      1   1    1.0000       1.950200       3.412202       4.289372      -0.932908      -0.143757      -0.330176
      2   2   -1.0000       0.772568      -0.061259       3.430720      -0.868116      -0.285502       0.406033
      3   1    1.0000      -2.690452       0.850042      -1.574324       0.544749       0.129833       0.828488
      4   2   -1.0000       1.442857      -2.793691      -2.318518       0.704053      -0.018309      -0.709912
      5   2   -1.0000       4.903640      -4.589052      -0.881180      -0.588711       0.795598       0.142981
ITEM: TIMESTEP
2100
ITEM: NUMBER OF ATOMS
5
ITEM: BOX BOUNDS ff ff ff
-5.00000000    5.00000000     
-5.00000000    5.00000000     
-5.00000000    5.00000000     
ITEM: ATOMS id type q x y z mux muy muz
      1   1    1.0000       1.923699       3.370186       4.277595      -0.837393      -0.376599      -0.396164
      2   2   -1.0000       0.769273       0.011800       3.460485      -0.859900      -0.318901       0.398591
      3   1    1.0000      -2.694976       0.854460      -1.581942       0.557125       0.112152       0.822820
      4   2   -1.0000       1.430965      -2.798493      -2.284705       0.716835      -0.033740      -0.696426
      5   2   -1.0000       4.858644      -4.619711      -0.925364      -0.597375       0.789629       0.140106
ITEM: TIMESTEP
2200
ITEM: NUMBER OF ATOMS
5
ITEM: BOX BOUNDS ff ff ff
-5.00000000    5.00000000     
-5.00000000    5.00000000     
-5.00000000    5.00000000     
ITEM: ATOMS id type q x y z mux muy muz
      1   1    1.0000       1.897657       3.327239       4.265610      -0.683377      -0.586482      -0.434782
      2   2   -1.0000       0.765746       0.085658       3.490408      -0.849950      -0.354917       0.389384
      3   1    1.0000      -2.698996       0.858310      -1.589513       0.569084       0.094593       0.816820
      4   2   -1.0000       1.418637      -2.802797      -2.251352       0.728914      -0.049280      -0.682829
      5   2   -1.0000       4.814369      -4.650168      -0.969083      -0.605594       0.783793       0.137568
ITEM: TIMESTEP
2300
ITEM: NUMBER OF ATOMS
5
ITEM: BOX BOUNDS ff ff ff
-5.00000000    5.00000000     
-5.00000000    5.00000000     
-5.00000000    5.00000000     
ITEM: ATOMS id type q x y z mux muy muz
      1   1    1.0000       1.872035       3.283214       4.253362      -0.480574      -0.757244      -0.442302
      2   2   -1.0000       0.762104       0.160368       3.520481      -0.838021      -0.393521       0.377972
      3   1    1.0000      -2.702512       0.861596      -1.597021       0.580663       0.077127       0.810482
      4   2   -1.0000       1.405910      -2.806592      -2.218518       0.740318      -0.064991      -0.669108
      5   2   -1.0000       4.770904      -4.680344      -1.012235      -0.613447       0.778056       0.135318
ITEM: TIMESTEP
2400
ITEM: NUMBER OF ATOMS
5
ITEM: BOX BOUNDS ff ff ff
-5.00000000    5.00000000     
-5.00000000    5.00000000     
-5.00000000    5.00000000     
ITEM: ATOMS id type q x y z mux muy muz
      1   1    1.0000       1.846757       3.237973       4.240797      -0.243551      -0.875409      -0.417542
      2   2   -1.0000       0.758501       0.235967       3.550694      -0.823900      -0.434449       0.363927
      3   1    1.0000      -2.705525       0.864327      -1.604440       0.591903       0.059711       0.803795
      4   2   -1.0000       1.392828      -2.809866      -2.186267       0.751070      -0.080935      -0.655243
      5   2   -1.0000       4.728344      -4.710159      -1.054713      -0.621009       0.772383       0.133311
ITEM: TIMESTEP
2500
ITEM: NUMBER OF ATOMS
5
ITEM: BOX BOUNDS ff ff ff
-5.00000000    5.00000000     
-5.00000000    5.00000000     
-5.00000000    5.00000000     
ITEM: ATOMS id type q x y z mux muy muz
      1   1    1.0000       1.821700       3.191402       4.227859       0.009590      -0.932046      -0.362213
      2   2   -1.0000       0.755138       0.312471       3.581033      -0.807453      -0.477173       0.346880
      3   1    1.0000      -2.708035       0.866513      -1.611747       0.602843       0.042297       0.796738
      4   2   -1.0000       1.379437      -2.812614      -2.154666       0.761198      -0.097166      -0.641199
      5   2   -1.0000       4.686786      -4.739530      -1.096409      -0.628343       0.766739       0.131519
ITEM: TIMESTEP
2600
ITEM: NUMBER OF ATOMS
5
ITEM: BOX BOUNDS ff ff ff
-5.00000000    5.00000000     
-5.00000000    5.00000000     
-5.00000000    5.00000000     
ITEM: ATOMS id type q x y z mux muy muz
      1   1    1.0000       1.796697       3.143425       4.214501       0.259252      -0.924085      -0.280813
      2   2   -1.0000       0.752253       0.389861       3.611481      -0.788688      -0.520888       0.326568
      3   1    1.0000      -2.710045       0.868167      -1.618912       0.613518       0.024828       0.789290
      4   2   -1.0000       1.365785      -2.814833      -2.123781       0.770723      -0.113732      -0.626938
      5   2   -1.0000       4.646321      -4.768378      -1.137219      -0.635502       0.761090       0.129919
ITEM: TIMESTEP
2700
ITEM: NUMBER OF ATOMS
5
ITEM: BOX BOUNDS ff ff ff
-5.00000000    5.00000000     
-5.00000000    5.00000000     
-5.00000000    5.00000000     
ITEM: ATOMS id type q x y z mux muy muz
      1   1    1.0000       1.771534       3.094018       4.200683       0.486738      -0.854788      -0.180065
      2   2   -1.0000       0.750119       0.468080       3.642017      -0.767824      -0.564533       0.302901
      3   1    1.0000      -2.711558       0.869304      -1.625910       0.623956       0.007256       0.781425
      4   2   -1.0000       1.351917      -2.816524      -2.093666       0.779660      -0.130667      -0.612419
      5   2   -1.0000       4.607022      -4.796635      -1.177054      -0.642526       0.755413       0.128499
ITEM: TIMESTEP
2800
ITEM: NUMBER OF ATOMS
5
ITEM: BOX BOUNDS ff ff ff
-5.00000000    5.00000000     
-5.00000000    5.00000000     
-5.00000000    5.00000000     
ITEM: ATOMS id type q x y z mux muy muz
      1   1    1.0000       1.745964       3.043222       4.186377       0.676528      -0.733273      -0.067980
      2   2   -1.0000       0.749027       0.547022       3.672623      -0.745349      -0.606857       0.276006
      3   1    1.0000      -2.712579       0.869942      -1.632718       0.634170      -0.010454       0.773123
      4   2   -1.0000       1.337872      -2.817693      -2.064362       0.788013      -0.147978      -0.597610
      5   2   -1.0000       4.568943      -4.824250      -1.215851      -0.649436       0.749692       0.127259
ITEM: TIMESTEP
2900
ITEM: NUMBER OF ATOMS
5
ITEM: BOX BOUNDS ff ff ff
-5.00000000    5.00000000     
-5.00000000    5.00000000     
-5.00000000    5.00000000     
ITEM: ATOMS id type q x y z mux muy muz
      1   1    1.0000       1.719714       2.991152       4.171564       0.818034      -0.573224       0.047279
      2   2   -1.0000       0.749271       0.626536       3.703287      -0.722062      -0.646513       0.246268
      3   1    1.0000      -2.713114       0.870097      -1.639319       0.644146      -0.028300       0.764378
      4   2   -1.0000       1.323677      -2.818348      -2.035888       0.795768      -0.165630      -0.582512
      5   2   -1.0000       4.532107      -4.851195      -1.253575      -0.656234       0.743929       0.126203
ITEM: TIMESTEP
3000
ITEM: NUMBER OF ATOMS
5
ITEM: BOX BOUNDS ff ff ff
-5.00000000    5.00000000     
-5.00000000    5.00000000     
-5.00000000    5.00000000     
ITEM: ATOMS id type q x y z mux muy muz
      1   1    1.0000       1.692507       2.937998       4.156228       0.906586      -0.391111       0.158539
      2   2   -1.0000       0.751126       0.706424       3.734012      -0.699058      -0.682188       0.214331
      3   1    1.0000      -2.713172       0.869783      -1.645704       0.653846      -0.046226       0.755214
      4   2   -1.0000       1.309348      -2.818499      -2.008236       0.802891      -0.183526      -0.567172
      5   2   -1.0000       4.496501      -4.877465      -1.290229      -0.662890       0.738151       0.125344
ITEM: TIMESTEP
3100
ITEM: NUMBER OF ATOMS
5
ITEM: BOX BOUNDS ff ff ff
-5.00000000    5.00000000     
-5.00000000    5.00000000     
-5.00000000    5.00000000     
ITEM: ATOMS id type q x y z mux muy muz
      1   1    1.0000       1.664076       2.884025       4.140339       0.943583      -0.204235       0.260650
      2   2   -1.0000       0.754831       0.786445       3.764834      -0.677649      -0.712751       0.181048
      3   1    1.0000      -2.712760       0.869015      -1.651875       0.663191      -0.064099       0.745700
      4   2   -1.0000       1.294882      -2.818154      -1.981372       0.809332      -0.201486      -0.551711
      5   2   -1.0000       4.462073      -4.903089      -1.325856      -0.669343       0.732414       0.124698
ITEM: TIMESTEP
3200
ITEM: NUMBER OF ATOMS
5
ITEM: BOX BOUNDS ff ff ff
-5.00000000    5.00000000     
-5.00000000    5.00000000     
-5.00000000    5.00000000     
ITEM: ATOMS id type q x y z mux muy muz
      1   1    1.0000       1.634179       2.829565       4.123837       0.935820      -0.028918       0.351291
      2   2   -1.0000       0.760572       0.866317       3.795844      -0.659196      -0.737392       0.147358
      3   1    1.0000      -2.711883       0.867802      -1.657842       0.672076      -0.081705       0.735961
      4   2   -1.0000       1.280257      -2.817323      -1.955233       0.815033      -0.219246      -0.536333
      5   2   -1.0000       4.428736      -4.928119      -1.360537      -0.675506       0.726806       0.124278
ITEM: TIMESTEP
3300
ITEM: NUMBER OF ATOMS
5
ITEM: BOX BOUNDS ff ff ff
-5.00000000    5.00000000     
-5.00000000    5.00000000     
-5.00000000    5.00000000     
ITEM: ATOMS id type q x y z mux muy muz
      1   1    1.0000       1.602615       2.775018       4.106591       0.893982       0.120855       0.431497
      2   2   -1.0000       0.768474       0.945724       3.827219      -0.644876      -0.755728       0.114066
      3   1    1.0000      -2.710547       0.866146      -1.663622       0.680378      -0.098763       0.726176
      4   2   -1.0000       1.265436      -2.816007      -1.929727       0.819944      -0.236478      -0.521316
      5   2   -1.0000       4.396369      -4.952639      -1.394391      -0.681271       0.721437       0.124092
ITEM: TIMESTEP
3400
ITEM: NUMBER OF ATOMS
5
ITEM: BOX BOUNDS ff ff ff
-5.00000000    5.00000000     
-5.00000000    5.00000000     
-5.00000000    5.00000000     
ITEM: ATOMS id type q x y z mux muy muz
      1   1    1.0000       1.569215       2.720847       4.088337       0.830361       0.233894       0.505760
      2   2   -1.0000       0.778610       1.024304       3.859282      -0.635451      -0.767822       0.081558
      3   1    1.0000      -2.708752       0.864048      -1.669244       0.687988      -0.114972       0.716557
      4   2   -1.0000       1.250362      -2.814207      -1.904743       0.824048      -0.252838      -0.506969
      5   2   -1.0000       4.364827      -4.976749      -1.427562      -0.686537       0.716420       0.124132
ITEM: TIMESTEP
3500
ITEM: NUMBER OF ATOMS
5
ITEM: BOX BOUNDS ff ff ff
-5.00000000    5.00000000     
-5.00000000    5.00000000     
-5.00000000    5.00000000     
ITEM: ATOMS id type q x y z mux muy muz
      1   1    1.0000       1.533828       2.667581       4.068578       0.755896       0.300807       0.581494
      2   2   -1.0000       0.791028       1.101637       3.892598      -0.631141      -0.774090       0.049450
      3   1    1.0000      -2.706494       0.861501      -1.674735       0.694834      -0.130070       0.707310
      4   2   -1.0000       1.234969      -2.811915      -1.880164       0.827369      -0.268032      -0.493578
      5   2   -1.0000       4.333955      -4.999439      -1.460206      -0.691226       0.711854       0.124379
ITEM: TIMESTEP
3600
ITEM: NUMBER OF ATOMS
5
ITEM: BOX BOUNDS ff ff ff
-5.00000000    5.00000000     
-5.00000000    5.00000000     
-5.00000000    5.00000000     
ITEM: ATOMS id type q x y z mux muy muz
      1   1    1.0000       1.496266       2.615794       4.046393       0.676733       0.311107       0.667267
      2   2   -1.0000       0.805834       1.177238       3.928140      -0.631617      -0.775111       0.016227
      3   1    1.0000      -2.703767       0.858495      -1.680123       0.700895      -0.143872       0.698603
      4   2   -1.0000       1.219201      -2.809121      -1.855891       0.829972      -0.281862      -0.481353
      5   2   -1.0000       4.303629      -4.975934      -1.492449      -0.695306       0.707795       0.124801
ITEM: TIMESTEP
3700
ITEM: NUMBER OF ATOMS
5
ITEM: BOX BOUNDS ff ff ff
-5.00000000    5.00000000     
-5.00000000    5.00000000     
-5.00000000    5.00000000     
ITEM: ATOMS id type q x y z mux muy muz
      1   1    1.0000       1.456182       2.565912       4.020153       0.590242       0.249056       0.767845
      2   2   -1.0000       0.823394       1.250666       3.967536      -0.635987      -0.771412      -0.021088
      3   1    1.0000      -2.700576       0.855034      -1.685413       0.706194      -0.156272       0.690558
      4   2   -1.0000       1.203062      -2.805825      -1.831931       0.831948      -0.294220      -0.470423
      5   2   -1.0000       4.273859      -4.952835      -1.524276      -0.698790       0.704256       0.125366
ITEM: TIMESTEP
3800
ITEM: NUMBER OF ATOMS
5
ITEM: BOX BOUNDS ff ff ff
-5.00000000    5.00000000     
-5.00000000    5.00000000     
-5.00000000    5.00000000     
ITEM: ATOMS id type q x y z mux muy muz
      1   1    1.0000       1.412862       2.517480       3.987373       0.481261       0.093328       0.871595
      2   2   -1.0000       0.844774       1.322009       4.013072      -0.642346      -0.763510      -0.066664
      3   1    1.0000      -2.696975       0.851178      -1.690531       0.710762      -0.167182       0.683277
      4   2   -1.0000       1.186801      -2.802077      -1.808642       0.833386      -0.305036      -0.460891
      5   2   -1.0000       4.245091      -4.930492      -1.555202      -0.701703       0.701234       0.126031
ITEM: TIMESTEP
3900
ITEM: NUMBER OF ATOMS
5
ITEM: BOX BOUNDS ff ff ff
-5.00000000    5.00000000     
-5.00000000    5.00000000     
-5.00000000    5.00000000     
ITEM: ATOMS id type q x y z mux muy muz