ITEM: TIMESTEP
0
ITEM: NUMBER OF ATOMS
5
ITEM: BOX BOUNDS ff ff ff
-5.00000000    5.00000000     
-5.00000000    5.00000000     
-5.00000000    5.00000000     
ITEM: ATOMS id type q x y z mux muy muz
      1   1    1.0000      -0.779411       4.203911       3.791981       0.923399      -0.121787       0.364007
      2   2   -1.0000      -0.431367      -0.891316       0.549965      -0.988491      -0.054562      -0.141095
      3   1    1.0000      -2.565573      -4.478319       4.391793      -0.562572       0.204562       0.801041
      4   2   -1.0000      -3.133476      -3.015461      -0.275258      -0.307114      -0.477691       0.823099
      5   2   -1.0000      -0.083512      -4.815718      -3.520150      -0.003249       0.708050       0.706155
ITEM: TIMESTEP
100
ITEM: NUMBER OF ATOMS
5
ITEM: BOX BOUNDS ff ff ff
-5.00000000    5.00000000     
-5.00000000    5.00000000     
-5.00000000    5.00000000     
ITEM: ATOMS id type q x y z mux muy muz
      1   1    1.0000      -0.725770       4.205041       3.804974       0.923685      -0.122608       0.363006
      2   2   -1.0000      -0.462415      -0.922644       0.537733      -0.977312      -0.122056      -0.173099
      3   1    1.0000      -2.576834      -4.495155       4.346791      -0.541422       0.232990       0.807823
      4   2   -1.0000      -3.180361      -2.962226      -0.261195      -0.305029      -0.478754       0.823257
      5   2   -1.0000      -0.047959      -4.821920      -3.489971      -0.045666       0.738511       0.672693
ITEM: TIMESTEP
200
ITEM: NUMBER OF ATOMS
5
ITEM: BOX BOUNDS ff ff ff
-5.00000000    5.00000000     
-5.00000000    5.00000000     
-5.00000000    5.00000000     
ITEM: ATOMS id type q x y z mux muy muz
      1   1    1.0000      -0.672194       4.205903       3.817648       0.924845      -0.126712       0.358618
      2   2   -1.0000      -0.493122      -0.953528       0.526126      -0.958293      -0.193059      -0.210720
      3   1    1.0000      -2.587945      -4.511932       4.301420      -0.515287       0.270720       0.813136
      4   2   -1.0000      -3.227740      -2.908943      -0.246798      -0.298609      -0.483405       0.822893
      5   2   -1.0000      -0.012337      -4.828402      -3.460064      -0.097189       0.770049       0.630539
ITEM: TIMESTEP
300
ITEM: NUMBER OF ATOMS
5
ITEM: BOX BOUNDS ff ff ff
-5.00000000    5.00000000     
-5.00000000    5.00000000     
-5.00000000    5.00000000     
ITEM: ATOMS id type q x y z mux muy muz
      1   1    1.0000      -0.618699       4.206495       3.829998       0.926959      -0.134825       0.350099
      2   2   -1.0000      -0.523516      -0.983975       0.515143      -0.930502      -0.265287      -0.252565
      3   1    1.0000      -2.598905      -4.528643       4.255679      -0.482760       0.319122       0.815539
      4   2   -1.0000      -3.275572      -2.855621      -0.232079      -0.287106      -0.492281       0.821723
      5   2   -1.0000       0.023354      -4.835160      -3.430409      -0.156845       0.800210       0.578846
ITEM: TIMESTEP
400
ITEM: NUMBER OF ATOMS
5
ITEM: BOX BOUNDS ff ff ff
-5.00000000    5.00000000     
-5.00000000    5.00000000     
-5.00000000    5.00000000     
ITEM: ATOMS id type q x y z mux muy muz
      1   1    1.0000      -0.565295       4.206815       3.842024       0.929977      -0.147663       0.336659
      2   2   -1.0000      -0.553630      -1.013985       0.504785      -0.893619      -0.336381      -0.297142
      3   1    1.0000      -2.609711      -4.545276       4.209560      -0.442110       0.379210       0.812858
      4   2   -1.0000      -3.323814      -2.802272      -0.217050      -0.269733      -0.505907       0.819330
      5   2   -1.0000       0.059112      -4.842187      -3.400987      -0.222866       0.826226       0.517378
ITEM: TIMESTEP
500
ITEM: NUMBER OF ATOMS
5
ITEM: BOX BOUNDS ff ff ff
-5.00000000    5.00000000     
-5.00000000    5.00000000     
-5.00000000    5.00000000     
ITEM: ATOMS id type q x y z mux muy muz
      1   1    1.0000      -0.511993       4.206862       3.853724       0.933640      -0.165865       0.317497
      2   2   -1.0000      -0.583498      -1.043555       0.495061      -0.848059      -0.403981      -0.342922
      3   1    1.0000      -2.620363      -4.561820       4.163052      -0.391369       0.451230       0.802011
      4   2   -1.0000      -3.372426      -2.748913      -0.201729      -0.245697      -0.524594       0.815128
      5   2   -1.0000       0.094941      -4.849477      -3.371776      -0.292771       0.845399       0.446751
ITEM: TIMESTEP
600
ITEM: NUMBER OF ATOMS
5
ITEM: BOX BOUNDS ff ff ff
-5.00000000    5.00000000     
-5.00000000    5.00000000     
-5.00000000    5.00000000     
ITEM: ATOMS id type q x y z mux muy muz
      1   1    1.0000      -0.458799       4.206634       3.865096       0.937419      -0.189907       0.291858
      2   2   -1.0000      -0.613150      -1.072680       0.485988      -0.794980      -0.465932      -0.388476
      3   1    1.0000      -2.630859      -4.578265       4.116139      -0.328519       0.534151       0.778947
      4   2   -1.0000      -3.421375      -2.695567      -0.186139      -0.214244      -0.548343       0.808343
      5   2   -1.0000       0.130844      -4.857025      -3.342753      -0.363652       0.855557       0.368483
ITEM: TIMESTEP
700
ITEM: NUMBER OF ATOMS
5
ITEM: BOX BOUNDS ff ff ff
-5.00000000    5.00000000     
-5.00000000    5.00000000     
-5.00000000    5.00000000     
ITEM: ATOMS id type q x y z mux muy muz
      1   1    1.0000      -0.405718       4.206130       3.876142       0.940456      -0.220006       0.259114
      2   2   -1.0000      -0.642608      -1.101351       0.477592      -0.736196      -0.520459      -0.432595
      3   1    1.0000      -2.641199      -4.594593       4.068797      -0.251864       0.625088       0.738803
      4   2   -1.0000      -3.470641      -2.642265      -0.170304      -0.174736      -0.576752       0.798013
      5   2   -1.0000       0.166827      -4.864824      -3.313895      -0.432550       0.855422       0.284875
ITEM: TIMESTEP
800
ITEM: NUMBER OF ATOMS
5
ITEM: BOX BOUNDS ff ff ff
-5.00000000    5.00000000     
-5.00000000    5.00000000     
-5.00000000    5.00000000     
ITEM: ATOMS id type q x y z mux muy muz
      1   1    1.0000      -0.352754       4.205346       3.886861       0.941568      -0.256022       0.218865
      2   2   -1.0000      -0.671886      -1.129558       0.469906      -0.673988      -0.566302      -0.474385
      3   1    1.0000      -2.651384      -4.610787       4.020999      -0.160613       0.718788       0.676422
      4   2   -1.0000      -3.520209      -2.589040      -0.154251      -0.126755      -0.608939       0.783024
      5   2   -1.0000       0.202895      -4.872865      -3.285182      -0.496837       0.844787       0.198717
ITEM: TIMESTEP
900
ITEM: NUMBER OF ATOMS
5
ITEM: BOX BOUNDS ff ff ff
-5.00000000    5.00000000     
-5.00000000    5.00000000     
-5.00000000    5.00000000     
ITEM: ATOMS id type q x y z mux muy muz
      1   1    1.0000      -0.299913       4.204283       3.897253       0.939308      -0.297392       0.171053
      2   2   -1.0000      -0.700983      -1.157296       0.462967      -0.610848      -0.602791      -0.513330
      3   1    1.0000      -2.661414      -4.626822       3.972714      -0.055565       0.807466       0.587291
      4   2   -1.0000      -3.570080      -2.535928      -0.138012      -0.070213      -0.643522       0.762200
      5   2   -1.0000       0.239052      -4.881140      -3.256591      -0.554523       0.824475       0.112897
ITEM: TIMESTEP
1000
ITEM: NUMBER OF ATOMS
5
ITEM: BOX BOUNDS ff ff ff
-5.00000000    5.00000000     
-5.00000000    5.00000000     
-5.00000000    5.00000000     
ITEM: ATOMS id type q x y z mux muy muz
      1   1    1.0000      -0.247199       4.202937       3.907320       0.932097      -0.343122       0.116031
      2   2   -1.0000      -0.729886      -1.184564       0.456818      -0.549163      -0.629835      -0.549298
      3   1    1.0000      -2.671290      -4.642668       3.923911       0.060299       0.881256       0.468777
      4   2   -1.0000      -3.620264      -2.482967      -0.121615      -0.005429      -0.678682       0.734412
      5   2   -1.0000       0.275300      -4.889641      -3.228102      -0.604425       0.796097       0.030000
ITEM: TIMESTEP
1100
ITEM: NUMBER OF ATOMS
5
ITEM: BOX BOUNDS ff ff ff
-5.00000000    5.00000000     
-5.00000000    5.00000000     
-5.00000000    5.00000000     
ITEM: ATOMS id type q x y z mux muy muz
      1   1    1.0000      -0.194619       4.201305       3.917064       0.918402      -0.391867       0.054562
      2   2   -1.0000      -0.758571      -1.211370       0.451498      -0.490942      -0.647828      -0.582490
      3   1    1.0000      -2.681013      -4.658287       3.874558       0.181605       0.929396       0.321313
      4   2   -1.0000      -3.670774      -2.430194      -0.105091       0.066871      -0.712290       0.698693
      5   2   -1.0000       0.311638      -4.898358      -3.199697      -0.646169       0.761683      -0.048000
ITEM: TIMESTEP
1200
ITEM: NUMBER OF ATOMS
5
ITEM: BOX BOUNDS ff ff ff
-5.00000000    5.00000000     
-5.00000000    5.00000000     
-5.00000000    5.00000000     
ITEM: ATOMS id type q x y z mux muy muz
      1   1    1.0000      -0.142183       4.199386       3.926485       0.896895      -0.442074      -0.012247
      2   2   -1.0000      -0.787002      -1.237735       0.447043      -0.437648      -0.657481      -0.613338
      3   1    1.0000      -2.690585      -4.673636       3.824630       0.300915       0.941919       0.149127
      4   2   -1.0000      -3.721630      -2.377639      -0.088468       0.145619      -0.742074       0.654310
      5   2   -1.0000       0.348062      -4.907280      -3.171358      -0.680039       0.723310      -0.119875
ITEM: TIMESTEP
1300
ITEM: NUMBER OF ATOMS
5
ITEM: BOX BOUNDS ff ff ff
-5.00000000    5.00000000     
-5.00000000    5.00000000     
-5.00000000    5.00000000     
ITEM: ATOMS id type q x y z mux muy muz
      1   1    1.0000      -0.089904       4.197176       3.935586       0.866552      -0.492126      -0.083057
      2   2   -1.0000      -0.815140      -1.263690       0.443479      -0.390142      -0.659650      -0.642380
      3   1    1.0000      -2.700008      -4.688667       3.774107       0.409566       0.911412      -0.039788
      4   2   -1.0000      -3.772850      -2.325326      -0.071769       0.229497      -0.765755       0.600792
      5   2   -1.0000       0.384563      -4.916398      -3.143070      -0.706746       0.682823      -0.185103
ITEM: TIMESTEP
1400
ITEM: NUMBER OF ATOMS
5
ITEM: BOX BOUNDS ff ff ff
-5.00000000    5.00000000     
-5.00000000    5.00000000     
-5.00000000    5.00000000     
ITEM: ATOMS id type q x y z mux muy muz
      1   1    1.0000      -0.037795       4.194671       3.944369       0.826694      -0.540471      -0.156423
      2   2   -1.0000      -0.842940      -1.289276       0.440820      -0.348746      -0.655190      -0.670151
      3   1    1.0000      -2.709286      -4.703328       3.722980       0.498832       0.834387      -0.234447
      4   2   -1.0000      -3.824444      -2.273270      -0.055017       0.317020      -0.781119       0.537914
      5   2   -1.0000       0.421127      -4.925700      -3.114820      -0.727206       0.641697      -0.243714
ITEM: TIMESTEP
1500
ITEM: NUMBER OF ATOMS
5
ITEM: BOX BOUNDS ff ff ff
-5.00000000    5.00000000     
-5.00000000    5.00000000     
-5.00000000    5.00000000     
ITEM: ATOMS id type q x y z mux muy muz
      1   1    1.0000       0.014128       4.191866       3.952839       0.776962      -0.585687      -0.230870
      2   2   -1.0000      -0.870364      -1.314545       0.439065      -0.313357      -0.644876      -0.697095
      3   1    1.0000      -2.718423      -4.717568       3.671250       0.561103       0.711966      -0.422218
      4   2   -1.0000      -3.876420      -2.221478      -0.038226       0.406555      -0.786041       0.465675
      5   2   -1.0000       0.457741      -4.935178      -3.086596      -0.742369       0.601007      -0.296105
ITEM: TIMESTEP
1600
ITEM: NUMBER OF ATOMS
5
ITEM: BOX BOUNDS ff ff ff
-5.00000000    5.00000000     
-5.00000000    5.00000000     
-5.00000000    5.00000000     
ITEM: ATOMS id type q x y z mux muy muz
      1   1    1.0000       0.065849       4.188755       3.960999       0.717279      -0.626508      -0.304956
      2   2   -1.0000      -0.897377      -1.339551       0.438198      -0.283573      -0.629372      -0.723517
      3   1    1.0000      -2.727426      -4.731335       3.618930       0.590873       0.549815      -0.590400
      4   2   -1.0000      -3.928772      -2.169948      -0.021407       0.496293      -0.778467       0.384295
      5   2   -1.0000       0.494388      -4.944823      -3.058388      -0.753112       0.561483      -0.342869
ITEM: TIMESTEP
1700
ITEM: NUMBER OF ATOMS
5
ITEM: BOX BOUNDS ff ff ff
-5.00000000    5.00000000     
-5.00000000    5.00000000     
-5.00000000    5.00000000     
ITEM: ATOMS id type q x y z mux muy muz
      1   1    1.0000       0.117356       4.185330       3.968855       0.647804      -0.661822      -0.377283
      2   2   -1.0000      -0.923954      -1.364349       0.438185      -0.258809      -0.609242      -0.749562
      3   1    1.0000      -2.736300      -4.744586       3.566042       0.585368       0.357398      -0.727744
      4   2   -1.0000      -3.981492      -2.118669      -0.004561       0.584162      -0.756418       0.294254
      5   2   -1.0000       0.531051      -4.954630      -3.030189      -0.760194       0.523582      -0.384666
ITEM: TIMESTEP
1800
ITEM: NUMBER OF ATOMS
5
ITEM: BOX BOUNDS ff ff ff
-5.00000000    5.00000000     
-5.00000000    5.00000000     
-5.00000000    5.00000000     
ITEM: ATOMS id type q x y z mux muy muz
      1   1    1.0000       0.168636       4.181586       3.976412       0.568905      -0.690644      -0.446495
      2   2   -1.0000      -0.950077      -1.388989       0.438981      -0.238384      -0.584991      -0.775215
      3   1    1.0000      -2.745054      -4.757279       3.512615       0.544739       0.146767      -0.825663
      4   2   -1.0000      -4.034559      -2.067628       0.012318       0.667732      -0.718033       0.196376
      5   2   -1.0000       0.567715      -4.964594      -3.001994      -0.764250       0.487565      -0.422141
ITEM: TIMESTEP
1900
ITEM: NUMBER OF ATOMS
5
ITEM: BOX BOUNDS ff ff ff
-5.00000000    5.00000000     
-5.00000000    5.00000000     
-5.00000000    5.00000000     
ITEM: ATOMS id type q x y z mux muy muz
      1   1    1.0000       0.219681       4.177514       3.983678       0.481153      -0.712104      -0.511273
      2   2   -1.0000      -0.975741      -1.413513       0.440527      -0.221598      -0.557108      -0.800328
      3   1    1.0000      -2.753694      -4.769382       3.458684       0.471862      -0.068877      -0.878978
      4   2   -1.0000      -4.087953      -2.016811       0.029246       0.744124      -0.661683       0.091950
      5   2   -1.0000       0.604369      -4.974712      -2.973802      -0.765805       0.453566      -0.455874
ITEM: TIMESTEP
2000
ITEM: NUMBER OF ATOMS
5
ITEM: BOX BOUNDS ff ff ff
-5.00000000    5.00000000     
-5.00000000    5.00000000     
-5.00000000    5.00000000     
ITEM: ATOMS id type q x y z mux muy muz
      1   1    1.0000       0.270487       4.173105       3.990660       0.385324      -0.725435      -0.570323
      2   2   -1.0000      -1.000949      -1.437951       0.442758      -0.207777      -0.526108      -0.824644
      3   1    1.0000      -2.762229      -4.780869       3.404282       0.371803      -0.276601      -0.886146
      4   2   -1.0000      -4.141651      -1.966206       0.046244       0.810001      -0.586178      -0.017135
      5   2   -1.0000       0.641004      -4.984983      -2.945611      -0.765291       0.421640      -0.486363
ITEM: TIMESTEP
2100
ITEM: NUMBER OF ATOMS
5
ITEM: BOX BOUNDS ff ff ff
-5.00000000    5.00000000     
-5.00000000    5.00000000     
-5.00000000    5.00000000     
ITEM: ATOMS id type q x y z mux muy muz
      1   1    1.0000       0.321054       4.168353       3.997366       0.282416      -0.729983      -0.622388
      2   2   -1.0000      -1.025711      -1.462315       0.445606      -0.196322      -0.492565      -0.847843
      3   1    1.0000      -2.770666      -4.791723       3.349444       0.251083      -0.464923      -0.849001
      4   2   -1.0000      -4.195632      -1.915809       0.063342       0.861645      -0.491030      -0.128286
      5   2   -1.0000       0.677617      -4.995409      -2.917426      -0.763077       0.391793      -0.514014
ITEM: TIMESTEP
2200
ITEM: NUMBER OF ATOMS
5
ITEM: BOX BOUNDS ff ff ff
-5.00000000    5.00000000     
-5.00000000    5.00000000     
-5.00000000    5.00000000     
ITEM: ATOMS id type q x y z mux muy muz
      1   1    1.0000       0.371384       4.163249       4.003804       0.173649      -0.725219      -0.666261
      2   2   -1.0000      -1.050039      -1.486606       0.449002      -0.186737      -0.457125      -0.869578
      3   1    1.0000      -2.779009      -4.801929       3.294199       0.116892      -0.624625      -0.772127
      4   2   -1.0000      -4.249884      -1.865626       0.080577       0.895173      -0.376750      -0.238170
      5   2   -1.0000       0.714209      -4.994063      -2.889250      -0.759485       0.364009      -0.539147
ITEM: TIMESTEP
2300
ITEM: NUMBER OF ATOMS
5
ITEM: BOX BOUNDS ff ff ff
-5.00000000    5.00000000     
-5.00000000    5.00000000     
-5.00000000    5.00000000     
ITEM: ATOMS id type q x y z mux muy muz
      1   1    1.0000       0.421493       4.157787       4.009985       0.060472      -0.710766      -0.700824
      2   2   -1.0000      -1.073951      -1.510807       0.452887      -0.178647      -0.420511      -0.889526
      3   1    1.0000      -2.787262      -4.811482       3.238561      -0.023631      -0.749120      -0.662013
      4   2   -1.0000      -4.304410      -1.815664       0.097987       0.906872      -0.245110      -0.342789
      5   2   -1.0000       0.750791      -4.983693      -2.861088      -0.754811       0.338259      -0.561998
ITEM: TIMESTEP
2400
ITEM: NUMBER OF ATOMS
5
ITEM: BOX BOUNDS ff ff ff
-5.00000000    5.00000000     
-5.00000000    5.00000000     
-5.00000000    5.00000000     
ITEM: ATOMS id type q x y z mux muy muz
      1   1    1.0000       0.471394       4.151961       4.015916      -0.055460      -0.686428      -0.725079
      2   2   -1.0000      -1.097459      -1.534888       0.457213      -0.171825      -0.383500      -0.907416
      3   1    1.0000      -2.795426      -4.820380       3.182541      -0.163934      -0.834420      -0.526183
      4   2   -1.0000      -4.359225      -1.765946       0.115610       0.893627      -0.099298      -0.437687
      5   2   -1.0000       0.787378      -4.973516      -2.832948      -0.749333       0.314516      -0.582734
ITEM: TIMESTEP
2500
ITEM: NUMBER OF ATOMS
5
ITEM: BOX BOUNDS ff ff ff
-5.00000000    5.00000000     
-5.00000000    5.00000000     
-5.00000000    5.00000000     
ITEM: ATOMS id type q x y z mux muy muz
      1   1    1.0000       0.521096       4.145767       4.021606      -0.172300      -0.652213      -0.738195
      2   2   -1.0000      -1.120570      -1.558804       0.461947      -0.166204      -0.346897      -0.923059
      3   1    1.0000      -2.803497      -4.828624       3.126146      -0.298358      -0.878793      -0.372432
      4   2   -1.0000      -4.414350      -1.716507       0.133477       0.853368       0.056085      -0.518284
      5   2   -1.0000       0.823982      -4.963533      -2.804843      -0.743325       0.292752      -0.601469
ITEM: TIMESTEP
2600
ITEM: NUMBER OF ATOMS
5
ITEM: BOX BOUNDS ff ff ff
-5.00000000    5.00000000     
-5.00000000    5.00000000     
-5.00000000    5.00000000     
ITEM: ATOMS id type q x y z mux muy muz
      1   1    1.0000       0.570608       4.139204       4.027060      -0.288048      -0.608359      -0.739545
      2   2   -1.0000      -1.143278      -1.582502       0.467071      -0.161873      -0.311492      -0.936360
      3   1    1.0000      -2.811469      -4.836220       3.069378      -0.422211      -0.882245      -0.208282
      4   2   -1.0000      -4.469818      -1.667388       0.151613       0.785457       0.215236      -0.580285
      5   2   -1.0000       0.860618      -4.953746      -2.776790      -0.737051       0.272942      -0.618271
ITEM: TIMESTEP
2700
ITEM: NUMBER OF ATOMS
5
ITEM: BOX BOUNDS ff ff ff
-5.00000000    5.00000000     
-5.00000000    5.00000000     
-5.00000000    5.00000000     
ITEM: ATOMS id type q x y z mux muy muz
      1   1    1.0000       0.619936       4.132274       4.032285      -0.400589      -0.555366      -0.728764
      2   2   -1.0000      -1.165572      -1.605929       0.472588      -0.159067      -0.278020      -0.947313
      3   1    1.0000      -2.819332      -4.843175       3.012230      -0.531649      -0.845986      -0.040711
      4   2   -1.0000      -4.525668      -1.618636       0.170034       0.690943       0.371535      -0.620128
      5   2   -1.0000       0.897297      -4.944160      -2.748806      -0.730771       0.255071      -0.633177
ITEM: TIMESTEP
2800
ITEM: NUMBER OF ATOMS
5
ITEM: BOX BOUNDS ff ff ff
-5.00000000    5.00000000     
-5.00000000    5.00000000     
-5.00000000    5.00000000     
ITEM: ATOMS id type q x y z mux muy muz
      1   1    1.0000       0.669078       4.124980       4.037286      -0.507751      -0.494015      -0.705789
      2   2   -1.0000      -1.187431      -1.629032       0.478521      -0.158125      -0.247116      -0.955997
      3   1    1.0000      -2.827074      -4.849500       2.954691      -0.623432      -0.772001       0.123885
      4   2   -1.0000      -4.581944      -1.570294       0.188746       0.572622       0.518080      -0.635372
      5   2   -1.0000       0.934032      -4.934778      -2.720912      -0.724741       0.239133      -0.646193
ITEM: TIMESTEP
2900
ITEM: NUMBER OF ATOMS
5
ITEM: BOX BOUNDS ff ff ff
-5.00000000    5.00000000     
-5.00000000    5.00000000     
-5.00000000    5.00000000     
ITEM: ATOMS id type q x y z mux muy muz
      1   1    1.0000       0.718032       4.117329       4.042066      -0.607382      -0.425387      -0.670919
      2   2   -1.0000      -1.208833      -1.651767       0.484908      -0.159448      -0.219274      -0.962546
      3   1    1.0000      -2.834679      -4.855204       2.896743      -0.694639      -0.662824       0.279537
      4   2   -1.0000      -4.638687      -1.522405       0.207747       0.434886       0.648283      -0.624983
      5   2   -1.0000       0.970829      -4.925603      -2.693131      -0.719207       0.225129      -0.657312
ITEM: TIMESTEP
3000
ITEM: NUMBER OF ATOMS
5
ITEM: BOX BOUNDS ff ff ff
-5.00000000    5.00000000     
-5.00000000    5.00000000     
-5.00000000    5.00000000     
ITEM: ATOMS id type q x y z mux muy muz
      1   1    1.0000       0.766785       4.109331       4.046627      -0.697459      -0.350864      -0.624857
      2   2   -1.0000      -1.229753      -1.674104       0.491804      -0.163435      -0.194814      -0.967128
      3   1    1.0000      -2.842133      -4.860296       2.838363      -0.742429      -0.521557       0.420450
      4   2   -1.0000      -4.695928      -1.475005       0.227027       0.283391       0.756449      -0.589469
      5   2   -1.0000       1.007690      -4.916641      -2.665489      -0.714397       0.213064      -0.666514
ITEM: TIMESTEP
3100
ITEM: NUMBER OF ATOMS
5
ITEM: BOX BOUNDS ff ff ff
-5.00000000    5.00000000     
-5.00000000    5.00000000     
-5.00000000    5.00000000     
ITEM: ATOMS id type q x y z mux muy muz
      1   1    1.0000       0.815321       4.100998       4.050971      -0.776215      -0.272101      -0.568728
      2   2   -1.0000      -1.250172      -1.696032       0.499274      -0.170418      -0.173845      -0.969915
      3   1    1.0000      -2.849416      -4.864777       2.779524      -0.763920      -0.352138       0.540764
      4   2   -1.0000      -4.753684      -1.428124       0.246573       0.124573       0.838265      -0.530843
      5   2   -1.0000       1.044612      -4.907897      -2.638010      -0.710516       0.202941      -0.673782
ITEM: TIMESTEP
3200
ITEM: NUMBER OF ATOMS
5
ITEM: BOX BOUNDS ff ff ff
-5.00000000    5.00000000     
-5.00000000    5.00000000     
-5.00000000    5.00000000     
ITEM: ATOMS id type q x y z mux muy muz
      1   1    1.0000       0.863617       4.092348       4.055098      -0.842292      -0.190951      -0.504065
      2   2   -1.0000      -1.270080      -1.717558       0.507393      -0.180594      -0.156246      -0.971068
      3   1    1.0000      -2.856511      -4.868637       2.720196      -0.756273      -0.159814       0.634438
      4   2   -1.0000      -4.811950      -1.381786       0.266365      -0.034926       0.891124      -0.452414
      5   2   -1.0000       1.081585      -4.899374      -2.610719      -0.707728       0.194755      -0.679111
ITEM: TIMESTEP
3300
ITEM: NUMBER OF ATOMS
5
ITEM: BOX BOUNDS ff ff ff
-5.00000000    5.00000000     
-5.00000000    5.00000000     
-5.00000000    5.00000000     
ITEM: ATOMS id type q x y z mux muy muz
      1   1    1.0000       0.911648       4.083397       4.059008      -0.894868      -0.109354      -0.432728
      2   2   -1.0000      -1.289483      -1.738715       0.516236      -0.193968      -0.141652      -0.970727
      3   1    1.0000      -2.863397      -4.871856       2.660343      -0.717021       0.048311       0.695376
      4   2   -1.0000      -4.870702      -1.336011       0.286384      -0.188826       0.914256      -0.358442
      5   2   -1.0000       1.118595      -4.891077      -2.583639      -0.706150       0.188480      -0.682515
ITEM: TIMESTEP
3400
ITEM: NUMBER OF ATOMS
5
ITEM: BOX BOUNDS ff ff ff
-5.00000000    5.00000000     
-5.00000000    5.00000000     
-5.00000000    5.00000000     
ITEM: ATOMS id type q x y z mux muy muz
      1   1    1.0000       0.959385       4.074166       4.062704      -0.933736      -0.029192      -0.356771
      2   2   -1.0000      -1.308404      -1.759560       0.525878      -0.210325      -0.129458      -0.969022
      3   1    1.0000      -2.870052      -4.874393       2.599932      -0.644650       0.262825       0.717878
      4   2   -1.0000      -4.929892      -1.290813       0.306608      -0.331716       0.908628      -0.253691
      5   2   -1.0000       1.155624      -4.883007      -2.556790      -0.705837       0.184067      -0.684042
ITEM: TIMESTEP
3500
ITEM: NUMBER OF ATOMS
5
ITEM: BOX BOUNDS ff ff ff
-5.00000000    5.00000000     
-5.00000000    5.00000000     
-5.00000000    5.00000000     
ITEM: ATOMS id type q x y z mux muy muz
      1   1    1.0000       1.006801       4.064674       4.066185      -0.959309       0.047860      -0.278273
      2   2   -1.0000      -1.326885      -1.780176       0.536385      -0.229227      -0.118840      -0.966091
      3   1    1.0000      -2.876448      -4.876188       2.538935      -0.539357       0.471900       0.697427
      4   2   -1.0000      -4.989454      -1.246204       0.327014      -0.459408       0.876646      -0.142956
      5   2   -1.0000       1.192648      -4.875165      -2.530187      -0.706780       0.181440      -0.683770
ITEM: TIMESTEP
3600
ITEM: NUMBER OF ATOMS
5
ITEM: BOX BOUNDS ff ff ff
-5.00000000    5.00000000     
-5.00000000    5.00000000     
-5.00000000    5.00000000     
ITEM: ATOMS id type q x y z mux muy muz
      1   1    1.0000       1.053868       4.054943       4.069454      -0.972536       0.120460      -0.199154
      2   2   -1.0000      -1.344979      -1.800667       0.547815      -0.250109      -0.108781      -0.962087
      3   1    1.0000      -2.882553      -4.877159       2.477327      -0.403803       0.661748       0.631691
      4   2   -1.0000      -4.951115      -1.202195       0.347577      -0.569065       0.821722      -0.030635
      5   2   -1.0000       1.229642      -4.867552      -2.503840      -0.708909       0.180506      -0.681811
ITEM: TIMESTEP
3700
ITEM: NUMBER OF ATOMS
5
ITEM: BOX BOUNDS ff ff ff
-5.00000000    5.00000000     
-5.00000000    5.00000000     
-5.00000000    5.00000000     
ITEM: ATOMS id type q x y z mux muy muz
      1   1    1.0000       1.100755       4.044950       4.072526      -0.974749       0.187654      -0.121042
      2   2   -1.0000      -1.362796      -1.821244       0.560280      -0.272700      -0.098073      -0.957087
      3   1    1.0000      -2.888344      -4.877199       2.414836      -0.243603       0.817757       0.521470
      4   2   -1.0000      -4.892451      -1.158622       0.368339      -0.659012       0.747907       0.079616
      5   2   -1.0000       1.266731      -4.860137      -2.477649      -0.712114       0.181181      -0.678283
ITEM: TIMESTEP
3800
ITEM: NUMBER OF ATOMS
5
ITEM: BOX BOUNDS ff ff ff
-5.00000000    5.00000000     
-5.00000000    5.00000000     
-5.00000000    5.00000000     
ITEM: ATOMS id type q x y z mux muy muz
      1   1    1.0000       1.147474       4.034702       4.075405      -0.967480       0.248877      -0.045192
      2   2   -1.0000      -1.380384      -1.842062       0.573849      -0.296813      -0.085334      -0.951115
      3   1    1.0000      -2.893768      -4.876170       2.351412      -0.067479       0.925979       0.371497
      4   2   -1.0000      -4.834568      -1.115469       0.389264      -0.728702       0.659363       0.185025
      5   2   -1.0000       1.303918      -4.852917      -2.451597      -0.716249       0.183391      -0.673317
ITEM: TIMESTEP
3900
ITEM: NUMBER OF ATOMS
5
ITEM: BOX BOUNDS ff ff ff
-5.00000000    5.00000000     
-5.00000000    5.00000000     
-5.00000000    5.00000000     
ITEM: ATOMS id type q x y z mux muy muz