ITEM: TIMESTEP
0
ITEM: NUMBER OF ATOMS
5
ITEM: BOX BOUNDS ff ff ff
-5.00000000    5.00000000     
-5.00000000    5.00000000     
-5.00000000    5.00000000     
ITEM: ATOMS id type q x y z mux muy muz
      1   1    1.0000      -4.598987       4.843435      -1.165246       0.142373      -0.740682      -0.656598
      2   2   -1.0000      -3.478157       1.667522      -2.157302      -0.999666      -0.019471       0.016984
      3   1    1.0000       0.858054       0.867918      -0.542708       0.339450      -0.480779      -0.808471
      4   2   -1.0000       3.360867      -2.350600      -0.513856      -0.346231      -0.906887       0.240166
      5   2   -1.0000       0.377086       1.635631       2.840149       0.038932       0.839551      -0.541884
ITEM: TIMESTEP
100
ITEM: NUMBER OF ATOMS
5
ITEM: BOX BOUNDS ff ff ff
-5.00000000    5.00000000     
-5.00000000    5.00000000     
-5.00000000    5.00000000     
ITEM: ATOMS id type q x y z mux muy muz
      1   1    1.0000      -4.566384       4.864595      -1.171016       0.339601      -0.808493      -0.480635
      2   2   -1.0000      -3.522248       1.711217      -2.175771      -0.989183      -0.048364       0.138481
      3   1    1.0000       0.885337       0.891492      -0.543151       0.323723      -0.458117      -0.827848
      4   2   -1.0000       3.328668      -2.377419      -0.532209      -0.340332      -0.903517       0.260443
      5   2   -1.0000       0.393490       1.574021       2.883183      -0.008541       0.826012      -0.563587
ITEM: TIMESTEP
200
ITEM: NUMBER OF ATOMS
5
ITEM: BOX BOUNDS ff ff ff
-5.00000000    5.00000000     
-5.00000000    5.00000000     
-5.00000000    5.00000000     
ITEM: ATOMS id type q x y z mux muy muz
      1   1    1.0000      -4.533189       4.884848      -1.176938       0.512556      -0.815911      -0.267536
      2   2   -1.0000      -3.566617       1.755552      -2.194017      -0.962995      -0.087994       0.254751
      3   1    1.0000       0.912817       0.914414      -0.543214       0.309562      -0.441759      -0.842033
      4   2   -1.0000       3.296102      -2.403609      -0.550823      -0.330740      -0.900515       0.282283
      5   2   -1.0000       0.409750       1.512699       2.926028      -0.052320       0.811071      -0.582604
ITEM: TIMESTEP
300
ITEM: NUMBER OF ATOMS
5
ITEM: BOX BOUNDS ff ff ff
-5.00000000    5.00000000     
-5.00000000    5.00000000     
-5.00000000    5.00000000     
ITEM: ATOMS id type q x y z mux muy muz
      1   1    1.0000      -4.499432       4.904132      -1.183132       0.647099      -0.761642      -0.034112
      2   2   -1.0000      -3.611249       1.800598      -2.211894      -0.921246      -0.138146       0.363623
      3   1    1.0000       0.940515       0.936641      -0.542922       0.297331      -0.431941      -0.851482
      4   2   -1.0000       3.263174      -2.429145      -0.569695      -0.317463      -0.897690       0.305564
      5   2   -1.0000       0.425856       1.451679       2.968680      -0.092737       0.795063      -0.599396
ITEM: TIMESTEP
400
ITEM: NUMBER OF ATOMS
5
ITEM: BOX BOUNDS ff ff ff
-5.00000000    5.00000000     
-5.00000000    5.00000000     
-5.00000000    5.00000000     
ITEM: ATOMS id type q x y z mux muy muz
      1   1    1.0000      -4.465172       4.922410      -1.189717       0.732694      -0.650217       0.200940
      2   2   -1.0000      -3.656106       1.846406      -2.229267      -0.863991      -0.198048       0.462922
      3   1    1.0000       0.968453       0.958133      -0.542297       0.287281      -0.428824      -0.856493
      4   2   -1.0000       3.229885      -2.454008      -0.588821      -0.300465      -0.894825       0.330165
      5   2   -1.0000       0.441804       1.390963       3.011139      -0.130164       0.778208      -0.614370
ITEM: TIMESTEP
500
ITEM: NUMBER OF ATOMS
5
ITEM: BOX BOUNDS ff ff ff
-5.00000000    5.00000000     
-5.00000000    5.00000000     
-5.00000000    5.00000000     
ITEM: ATOMS id type q x y z mux muy muz
      1   1    1.0000      -4.430497       4.939686      -1.196794       0.763471      -0.491278       0.419235
      2   2   -1.0000      -3.701123       1.892998      -2.246027      -0.791286      -0.266319       0.550401
      3   1    1.0000       0.996657       0.978859      -0.541359       0.279574      -0.432525      -0.857182
      4   2   -1.0000       3.196230      -2.478180      -0.608198      -0.279665      -0.891675       0.355955
      5   2   -1.0000       0.457596       1.330541       3.053414      -0.164987       0.760633      -0.627866
ITEM: TIMESTEP
600
ITEM: NUMBER OF ATOMS
5
ITEM: BOX BOUNDS ff ff ff
-5.00000000    5.00000000     
-5.00000000    5.00000000     
-5.00000000    5.00000000     
ITEM: ATOMS id type q x y z mux muy muz
      1   1    1.0000      -4.395512       4.956003      -1.204436       0.738540      -0.298206       0.604675
      2   2   -1.0000      -3.746220       1.940364      -2.262101      -0.703343      -0.340931       0.623759
      3   1    1.0000       1.025158       0.998791      -0.540125       0.274289      -0.443120      -0.853469
      4   2   -1.0000       3.162196      -2.501644      -0.627827      -0.254953      -0.887967       0.382771
      5   2   -1.0000       0.473241       1.270391       3.095526      -0.197576       0.742401      -0.640159
ITEM: TIMESTEP
700
ITEM: NUMBER OF ATOMS
5
ITEM: BOX BOUNDS ff ff ff
-5.00000000    5.00000000     
-5.00000000    5.00000000     
-5.00000000    5.00000000     
ITEM: ATOMS id type q x y z mux muy muz
      1   1    1.0000      -4.360327       4.971449      -1.212682       0.661586      -0.086409       0.744874
      2   2   -1.0000      -3.791312       1.988458      -2.277460      -0.600720      -0.419227       0.680723
      3   1    1.0000       1.053987       1.017906      -0.538610       0.271430      -0.460628      -0.845073
      4   2   -1.0000       3.127766      -2.524387      -0.647710      -0.226213      -0.883405       0.410394
      5   2   -1.0000       0.488749       1.210480       3.137498      -0.228267       0.723538      -0.651450
ITEM: TIMESTEP
800
ITEM: NUMBER OF ATOMS
5
ITEM: BOX BOUNDS ff ff ff
-5.00000000    5.00000000     
-5.00000000    5.00000000     
-5.00000000    5.00000000     
ITEM: ATOMS id type q x y z mux muy muz
      1   1    1.0000      -4.325044       4.986147      -1.221530       0.539932       0.128349       0.831866
      2   2   -1.0000      -3.836324       2.037202      -2.292120      -0.484510      -0.497990       0.719205
      3   1    1.0000       1.083177       1.036181      -0.536826       0.270920      -0.484955      -0.831517
      4   2   -1.0000       3.092918      -2.546392      -0.667847      -0.193373      -0.877674       0.438515
      5   2   -1.0000       0.504136       1.150768       3.179360      -0.257340       0.704067      -0.661865
ITEM: TIMESTEP
900
ITEM: NUMBER OF ATOMS
5
ITEM: BOX BOUNDS ff ff ff
-5.00000000    5.00000000     
-5.00000000    5.00000000     
-5.00000000    5.00000000     
ITEM: ATOMS id type q x y z mux muy muz
      1   1    1.0000      -4.289740       4.999753      -1.230942       0.383344       0.331322       0.862133
      2   2   -1.0000      -3.881206       2.086494      -2.306142      -0.356491      -0.573587       0.737503
      3   1    1.0000       1.112760       1.053592      -0.534780       0.272589      -0.515816      -0.812176
      4   2   -1.0000       3.057630      -2.567642      -0.688238      -0.156461      -0.870463       0.466705
      5   2   -1.0000       0.519419       1.091214       3.221139      -0.285012       0.684035      -0.671464
ITEM: TIMESTEP
1000
ITEM: NUMBER OF ATOMS
5
ITEM: BOX BOUNDS ff ff ff
-5.00000000    5.00000000     
-5.00000000    5.00000000     
-5.00000000    5.00000000     
ITEM: ATOMS id type q x y z mux muy muz
      1   1    1.0000      -4.254453       4.985685      -1.240844       0.202889       0.509663       0.836110
      2   2   -1.0000      -3.925944       2.136221      -2.319617      -0.219232      -0.642199       0.734518
      3   1    1.0000       1.142760       1.070112      -0.532481       0.276156      -0.552641      -0.786337
      4   2   -1.0000       3.021885      -2.588112      -0.708879      -0.115669      -0.861501       0.494406
      5   2   -1.0000       0.534614       1.031786       3.262858      -0.311431       0.663540      -0.680239
ITEM: TIMESTEP
1100
ITEM: NUMBER OF ATOMS
5
ITEM: BOX BOUNDS ff ff ff
-5.00000000    5.00000000     
-5.00000000    5.00000000     
-5.00000000    5.00000000     
ITEM: ATOMS id type q x y z mux muy muz
      1   1    1.0000      -4.219205       4.971289      -1.251143       0.010004       0.652857       0.757415
      2   2   -1.0000      -3.970530       2.186241      -2.332639      -0.076081      -0.700140       0.709941
      3   1    1.0000       1.173173       1.085696      -0.529937       0.281225      -0.594500      -0.753314
      4   2   -1.0000       2.985702      -2.607757      -0.729743      -0.071407      -0.850599       0.520944
      5   2   -1.0000       0.549724       0.972503       3.304498      -0.336682       0.642743      -0.688132
ITEM: TIMESTEP
1200
ITEM: NUMBER OF ATOMS
5
ITEM: BOX BOUNDS ff ff ff
-5.00000000    5.00000000     
-5.00000000    5.00000000     
-5.00000000    5.00000000     
ITEM: ATOMS id type q x y z mux muy muz
      1   1    1.0000      -4.183937       4.956636      -1.261742      -0.184159       0.752731       0.632046
      2   2   -1.0000      -4.015044       2.236493      -2.345317       0.068938      -0.744153       0.664442
      3   1    1.0000       1.204008       1.100308      -0.527153       0.287276      -0.640061      -0.712597
      4   2   -1.0000       2.949077      -2.626542      -0.750814      -0.024336      -0.837710       0.545573
      5   2   -1.0000       0.564758       0.913353       3.346064      -0.360807       0.621869      -0.695052
ITEM: TIMESTEP
1300
ITEM: NUMBER OF ATOMS
5
ITEM: BOX BOUNDS ff ff ff
-5.00000000    5.00000000     
-5.00000000    5.00000000     
-5.00000000    5.00000000     
ITEM: ATOMS id type q x y z mux muy muz
      1   1    1.0000      -4.148561       4.941723      -1.272557      -0.368895       0.803182       0.467777
      2   2   -1.0000      -4.059586       2.286968      -2.357740       0.211298      -0.771798       0.599734
      3   1    1.0000       1.235254       1.113903      -0.524141       0.293692      -0.687627      -0.664014
      4   2   -1.0000       2.912034      -2.644422      -0.772061       0.024636      -0.822972       0.567548
      5   2   -1.0000       0.579722       0.854356       3.387535      -0.383819       0.601193      -0.700892
ITEM: TIMESTEP
1400
ITEM: NUMBER OF ATOMS
5
ITEM: BOX BOUNDS ff ff ff
-5.00000000    5.00000000     
-5.00000000    5.00000000     
-5.00000000    5.00000000     
ITEM: ATOMS id type q x y z mux muy muz
      1   1    1.0000      -4.112980       4.926440      -1.283532      -0.533802       0.799995       0.273977
      2   2   -1.0000      -4.104262       2.337747      -2.369946       0.346256      -0.781838       0.518495
      3   1    1.0000       1.266873       1.126430      -0.520910       0.299817      -0.735276      -0.607848
      4   2   -1.0000       2.874623      -2.661343      -0.793437       0.074429      -0.806728       0.586217
      5   2   -1.0000       0.594609       0.795571       3.428862      -0.405734       0.581011      -0.705554
ITEM: TIMESTEP
1500
ITEM: NUMBER OF ATOMS
5
ITEM: BOX BOUNDS ff ff ff
-5.00000000    5.00000000     
-5.00000000    5.00000000     
-5.00000000    5.00000000     
ITEM: ATOMS id type q x y z mux muy muz
      1   1    1.0000      -4.077127       4.910549      -1.294668      -0.668618       0.741033       0.061807
      2   2   -1.0000      -4.149137       2.389010      -2.381908       0.469207      -0.774563       0.424144
      3   1    1.0000       1.298805       1.137832      -0.517478       0.305027      -0.781080      -0.544860
      4   2   -1.0000       2.836921      -2.677243      -0.814879       0.123915      -0.789499       0.601113
      5   2   -1.0000       0.609401       0.737093       3.469970      -0.426595       0.561595      -0.708963
ITEM: TIMESTEP
1600
ITEM: NUMBER OF ATOMS
5
ITEM: BOX BOUNDS ff ff ff
-5.00000000    5.00000000     
-5.00000000    5.00000000     
-5.00000000    5.00000000     
ITEM: ATOMS id type q x y z mux muy muz
      1   1    1.0000      -4.041010       4.893687      -1.306028      -0.763400       0.626940      -0.155459
      2   2   -1.0000      -4.194197       2.441051      -2.393521       0.576068      -0.751952       0.320490
      3   1    1.0000       1.330965       1.148053      -0.513863       0.308802      -0.823340      -0.476186
      4   2   -1.0000       2.799028      -2.692060      -0.836314       0.172069      -0.771916       0.611995
      5   2   -1.0000       0.624077       0.679046       3.510762      -0.446495       0.543153      -0.711075
ITEM: TIMESTEP
1700
ITEM: NUMBER OF ATOMS
5
ITEM: BOX BOUNDS ff ff ff
-5.00000000    5.00000000     
-5.00000000    5.00000000     
-5.00000000    5.00000000     
ITEM: ATOMS id type q x y z mux muy muz
      1   1    1.0000      -4.004757       4.875387      -1.317743      -0.809326       0.462196      -0.362445
      2   2   -1.0000      -4.239307       2.494256      -2.404604       0.663619      -0.717617       0.211273
      3   1    1.0000       1.363261       1.157047      -0.510088       0.310765      -0.860757      -0.403140
      4   2   -1.0000       2.761058      -2.705739      -0.857662       0.218092      -0.754628       0.618848
      5   2   -1.0000       0.638608       0.621567       3.551134      -0.465590       0.525796      -0.711874
ITEM: TIMESTEP
1800
ITEM: NUMBER OF ATOMS
5
ITEM: BOX BOUNDS ff ff ff
-5.00000000    5.00000000     
-5.00000000    5.00000000     
-5.00000000    5.00000000     
ITEM: ATOMS id type q x y z mux muy muz
      1   1    1.0000      -3.968643       4.855126      -1.329995      -0.800116       0.256066      -0.542443
      2   2   -1.0000      -4.284180       2.549075      -2.414929       0.729679      -0.676487       0.099671
      3   1    1.0000       1.395597       1.164774      -0.506176       0.310691      -0.892497      -0.326986
      4   2   -1.0000       2.723122      -2.718232      -0.878849       0.261482      -0.738218       0.621822
      5   2   -1.0000       0.652967       0.564784       3.590985      -0.484096       0.509525      -0.711362
ITEM: TIMESTEP
1900
ITEM: NUMBER OF ATOMS
5
ITEM: BOX BOUNDS ff ff ff
-5.00000000    5.00000000     
-5.00000000    5.00000000     
-5.00000000    5.00000000     
ITEM: ATOMS id type q x y z mux muy muz
      1   1    1.0000      -3.933101       4.832389      -1.342993      -0.733718       0.022848      -0.679070
      2   2   -1.0000      -4.328376       2.605964      -2.424247       0.773020      -0.634266      -0.012119
      3   1    1.0000       1.427889       1.171210      -0.502151       0.308471      -0.918130      -0.248764
      4   2   -1.0000       2.685317      -2.729509      -0.899806       0.302029      -0.723153       0.621150
      5   2   -1.0000       0.667134       0.508801       3.630234      -0.502285       0.494237      -0.709535
ITEM: TIMESTEP
2000
ITEM: NUMBER OF ATOMS
5
ITEM: BOX BOUNDS ff ff ff
-5.00000000    5.00000000     
-5.00000000    5.00000000     
-5.00000000    5.00000000     
ITEM: ATOMS id type q x y z mux muy muz
      1   1    1.0000      -3.898707       4.806725      -1.356937      -0.613708      -0.218945      -0.758568
      2   2   -1.0000      -4.371316       2.665332      -2.432329       0.792942      -0.596732      -0.123104
      3   1    1.0000       1.460071       1.176339      -0.498034       0.304070      -0.937498      -0.169228
      4   2   -1.0000       2.647722      -2.739554      -0.920481       0.339753      -0.709784       0.617069
      5   2   -1.0000       0.681094       0.453692       3.668818      -0.520460       0.479749      -0.706372
ITEM: TIMESTEP
2100
ITEM: NUMBER OF ATOMS
5
ITEM: BOX BOUNDS ff ff ff
-5.00000000    5.00000000     
-5.00000000    5.00000000     
-5.00000000    5.00000000     
ITEM: ATOMS id type q x y z mux muy muz
      1   1    1.0000      -3.866143       4.777793      -1.371996      -0.449931      -0.448560      -0.772241
      2   2   -1.0000      -4.412317       2.727499      -2.438991       0.788538      -0.568976      -0.233397
      3   1    1.0000       1.492092       1.180159      -0.493846       0.297484      -0.950578      -0.088913
      4   2   -1.0000       2.610392      -2.748362      -0.940834       0.374800      -0.698365       0.609764
      5   2   -1.0000       0.694839       0.399496       3.706704      -0.538942       0.465821      -0.701820
ITEM: TIMESTEP
2200
ITEM: NUMBER OF ATOMS
5
ITEM: BOX BOUNDS ff ff ff
-5.00000000    5.00000000     
-5.00000000    5.00000000     
-5.00000000    5.00000000     
ITEM: ATOMS id type q x y z mux muy muz
      1   1    1.0000      -3.836153       4.745379      -1.388298      -0.258046      -0.645913      -0.718477
      2   2   -1.0000      -4.450637       2.792668      -2.444094       0.757834      -0.554597      -0.343671
      3   1    1.0000       1.523917       1.182673      -0.489603       0.288720      -0.957378      -0.008270
      4   2   -1.0000       2.573368      -2.755938      -0.960836       0.407349      -0.689095       0.599346
      5   2   -1.0000       0.708369       0.346231       3.743868      -0.558034       0.452188      -0.695790
ITEM: TIMESTEP
2300
ITEM: NUMBER OF ATOMS
5
ITEM: BOX BOUNDS ff ff ff
-5.00000000    5.00000000     
-5.00000000    5.00000000     
-5.00000000    5.00000000     
ITEM: ATOMS id type q x y z mux muy muz
      1   1    1.0000      -3.809506       4.709398      -1.405950      -0.057842      -0.795029      -0.603807
      2   2   -1.0000      -4.485508       2.860921      -2.447527       0.697100      -0.554824      -0.454116
      3   1    1.0000       1.555511       1.183889      -0.485322       0.277799      -0.957925       0.072167
      4   2   -1.0000       2.536686      -2.762294      -0.980460       0.437533      -0.682148       0.585866
      5   2   -1.0000       0.721681       0.293912       3.780297      -0.577998       0.438578      -0.688163
ITEM: TIMESTEP
2400
ITEM: NUMBER OF ATOMS
5
ITEM: BOX BOUNDS ff ff ff
-5.00000000    5.00000000     
-5.00000000    5.00000000     
-5.00000000    5.00000000     
ITEM: ATOMS id type q x y z mux muy muz
      1   1    1.0000      -3.786970       4.669873      -1.425072       0.129609      -0.887373      -0.442459
      2   2   -1.0000      -4.516160       2.932217      -2.449158       0.600832      -0.567564      -0.562914
      3   1    1.0000       1.586831       1.183821      -0.481021       0.264772      -0.952309       0.151668
      4   2   -1.0000       2.500393      -2.767443      -0.999676       0.465395      -0.677683       0.569345
      5   2   -1.0000       0.734769       0.242568       3.815963      -0.599028       0.424729      -0.678801
ITEM: TIMESTEP
2500
ITEM: NUMBER OF ATOMS
5
ITEM: BOX BOUNDS ff ff ff
-5.00000000    5.00000000     
-5.00000000    5.00000000     
-5.00000000    5.00000000     
ITEM: ATOMS id type q x y z mux muy muz
      1   1    1.0000      -3.769296       4.626934      -1.445860       0.285460      -0.924096      -0.254083
      2   2   -1.0000      -4.541831       3.006385      -2.448761       0.462975      -0.586551      -0.664539
      3   1    1.0000       1.617809       1.182488      -0.476718       0.249740      -0.940774       0.229292
      4   2   -1.0000       2.464564      -2.771400      -1.018439       0.490882      -0.675830       0.549808
      5   2   -1.0000       0.747617       0.192265       3.850816      -0.621233       0.410398      -0.667565
ITEM: TIMESTEP
2600
ITEM: NUMBER OF ATOMS
5
ITEM: BOX BOUNDS ff ff ff
-5.00000000    5.00000000     
-5.00000000    5.00000000     
-5.00000000    5.00000000     
ITEM: ATOMS id type q x y z mux muy muz
      1   1    1.0000      -3.757214       4.580826      -1.468660       0.396170      -0.916215      -0.060001
      2   2   -1.0000      -4.561772       3.083107      -2.445946       0.279763      -0.601081      -0.748621
      3   1    1.0000       1.648343       1.179921      -0.472439       0.232857      -0.923786       0.303968
      4   2   -1.0000       2.429310      -2.774186      -1.036690       0.513874      -0.676675       0.527300
      5   2   -1.0000       0.760196       0.143126       3.884772      -0.644635       0.395356      -0.654324
ITEM: TIMESTEP
2700
ITEM: NUMBER OF ATOMS
5
ITEM: BOX BOUNDS ff ff ff
-5.00000000    5.00000000     
-5.00000000    5.00000000     
-5.00000000    5.00000000     
ITEM: ATOMS id type q x y z mux muy muz
      1   1    1.0000      -3.751423       4.531936      -1.494031       0.454791      -0.882384       0.120680
      2   2   -1.0000      -4.575253       3.161878      -2.440073       0.053847      -0.597033      -0.800408
      3   1    1.0000       1.678287       1.176165      -0.468214       0.214322      -0.902060       0.374638
      4   2   -1.0000       2.394793      -2.775826      -1.054344       0.534210      -0.680239       0.501891
      5   2   -1.0000       0.772458       0.095338       3.917699      -0.669176       0.379393      -0.638956
ITEM: TIMESTEP
2800
ITEM: NUMBER OF ATOMS
5
ITEM: BOX BOUNDS ff ff ff
-5.00000000    5.00000000     
-5.00000000    5.00000000     
-5.00000000    5.00000000     
ITEM: ATOMS id type q x y z mux muy muz
      1   1    1.0000      -3.752585       4.480826      -1.522821       0.459710      -0.845006       0.273188
      2   2   -1.0000      -4.581566       3.241969      -2.430189      -0.201580      -0.559712      -0.803796
      3   1    1.0000       1.707444       1.171285      -0.464079       0.194365      -0.876542       0.440336
      4   2   -1.0000       2.361234      -2.776355      -1.071291       0.551706      -0.686471       0.473685
      5   2   -1.0000       0.784336       0.049168       3.949416      -0.694720       0.362319      -0.621361
ITEM: TIMESTEP
2900
ITEM: NUMBER OF ATOMS
5
ITEM: BOX BOUNDS ff ff ff
-5.00000000    5.00000000     
-5.00000000    5.00000000     
-5.00000000    5.00000000     
ITEM: ATOMS id type q x y z mux muy muz
      1   1    1.0000      -3.761336       4.428238      -1.556235       0.411344      -0.825720       0.385983
      2   2   -1.0000      -4.580012       3.322399      -2.414930      -0.460838      -0.478659      -0.747338
      3   1    1.0000       1.735544       1.165380      -0.460082       0.173288      -0.848426       0.500145
      4   2   -1.0000       2.328935      -2.775823      -1.087382       0.566138      -0.695227       0.442885
      5   2   -1.0000       0.795733       0.004994       3.979667      -0.721001       0.344013      -0.601509
ITEM: TIMESTEP
3000
ITEM: NUMBER OF ATOMS
5
ITEM: BOX BOUNDS ff ff ff
-5.00000000    5.00000000     
-5.00000000    5.00000000     
-5.00000000    5.00000000     
ITEM: ATOMS id type q x y z mux muy muz
      1   1    1.0000      -3.778313       4.375018      -1.595947       0.308721      -0.840029       0.446142
      2   2   -1.0000      -4.569855       3.401951      -2.392383      -0.688885      -0.353806      -0.632660
      3   1    1.0000       1.762185       1.158600      -0.456291       0.151565      -0.819259       0.553031
      4   2   -1.0000       2.298348      -2.774307      -1.102400       0.577219      -0.706217       0.409969
      5   2   -1.0000       0.806498      -0.036600       4.008058      -0.747519       0.324530      -0.579564
ITEM: TIMESTEP
3100
ITEM: NUMBER OF ATOMS
5
ITEM: BOX BOUNDS ff ff ff
-5.00000000    5.00000000     
-5.00000000    5.00000000     
-5.00000000    5.00000000     
ITEM: ATOMS id type q x y z mux muy muz
      1   1    1.0000      -3.804199       4.321845      -1.644270       0.149581      -0.888813       0.433171
      2   2   -1.0000      -4.550244       3.479314      -2.359821      -0.852423      -0.201000      -0.482674
      3   1    1.0000       1.786702       1.151209      -0.452805       0.129980      -0.791083       0.597740
      4   2   -1.0000       2.270229      -2.771931      -1.115988       0.584646      -0.718914       0.375968
      5   2   -1.0000       0.816374      -0.074626       4.033921      -0.773411       0.304276      -0.556103
ITEM: TIMESTEP
3200
ITEM: NUMBER OF ATOMS
5
ITEM: BOX BOUNDS ff ff ff
-5.00000000    5.00000000     
-5.00000000    5.00000000     
-5.00000000    5.00000000     
ITEM: ATOMS id type q x y z mux muy muz
      1   1    1.0000      -3.839728       4.268290      -1.704358      -0.060577      -0.946092       0.318183
      2   2   -1.0000      -4.520155       3.553814      -2.313373      -0.937633      -0.053413      -0.343499
      3   1    1.0000       1.807957       1.143691      -0.449793       0.109654      -0.766324       0.633028
      4   2   -1.0000       2.245874      -2.768932      -1.127543       0.588273      -0.732492       0.342623
      5   2   -1.0000       0.824915      -0.107372       4.056104      -0.797475       0.284122      -0.532267
ITEM: TIMESTEP
3300
ITEM: NUMBER OF ATOMS
5
ITEM: BOX BOUNDS ff ff ff
-5.00000000    5.00000000     
-5.00000000    5.00000000     
-5.00000000    5.00000000     
ITEM: ATOMS id type q x y z mux muy muz
      1   1    1.0000      -3.875392       4.220435      -1.771440      -0.289125      -0.953810       0.081569
      2   2   -1.0000      -4.488659       3.617712      -2.256734      -0.960666       0.039374      -0.274901
      3   1    1.0000       1.824247       1.136885      -0.447494       0.091816      -0.747217       0.658208
      4   2   -1.0000       2.227218      -2.765755      -1.136193       0.588355      -0.745917       0.312162
      5   2   -1.0000       0.831450      -0.132289       4.072898      -0.818446       0.265310      -0.509664
ITEM: TIMESTEP
3400
ITEM: NUMBER OF ATOMS
5
ITEM: BOX BOUNDS ff ff ff
-5.00000000    5.00000000     
-5.00000000    5.00000000     
-5.00000000    5.00000000     
ITEM: ATOMS id type q x y z mux muy muz
      1   1    1.0000      -3.810490       4.256514      -1.797950      -0.466179      -0.856243      -0.222542
      2   2   -1.0000      -4.558811       3.601847      -2.243376      -0.951272       0.017611      -0.307849
      3   1    1.0000       1.844762       1.126984      -0.444609       0.077553      -0.735151       0.673453
      4   2   -1.0000       2.203722      -2.760632      -1.146834       0.585660      -0.758069       0.286938
      5   2   -1.0000       0.839680      -0.163471       4.093806      -0.835242       0.249262      -0.490142
ITEM: TIMESTEP
3500
ITEM: NUMBER OF ATOMS
5
ITEM: BOX BOUNDS ff ff ff
-5.00000000    5.00000000     
-5.00000000    5.00000000     
-5.00000000    5.00000000     
ITEM: ATOMS id type q x y z mux muy muz
      1   1    1.0000      -3.756719       4.279747      -1.817888      -0.562513      -0.684586      -0.463596
      2   2   -1.0000      -4.616399       3.593337      -2.233015      -0.923313      -0.099109      -0.371041
      3   1    1.0000       1.859678       1.118756      -0.442516       0.066327      -0.729210       0.681068
      4   2   -1.0000       2.186625      -2.756043      -1.154389       0.581019      -0.769007       0.266542
      5   2   -1.0000       0.845679      -0.186025       4.108845      -0.848610       0.235767      -0.473577
ITEM: TIMESTEP
3600
ITEM: NUMBER OF ATOMS
5
ITEM: BOX BOUNDS ff ff ff
-5.00000000    5.00000000     
-5.00000000    5.00000000     
-5.00000000    5.00000000     
ITEM: ATOMS id type q x y z mux muy muz
      1   1    1.0000      -3.720332       4.264682      -1.873385      -0.617301      -0.488685      -0.616544
      2   2   -1.0000      -4.659007       3.632428      -2.193146      -0.867771      -0.277994      -0.411938
      3   1    1.0000       1.883957       1.103779      -0.439112       0.055815      -0.727492       0.683843
      4   2   -1.0000       2.158762      -2.747241      -1.166419       0.574151      -0.780561       0.247134
      5   2   -1.0000       0.855483      -0.222589       4.133097      -0.861235       0.222345      -0.456987
ITEM: TIMESTEP
3700
ITEM: NUMBER OF ATOMS
5
ITEM: BOX BOUNDS ff ff ff
-5.00000000    5.00000000     
-5.00000000    5.00000000     
-5.00000000    5.00000000     
ITEM: ATOMS id type q x y z mux muy muz
      1   1    1.0000      -3.730151       4.213058      -1.934651      -0.677394      -0.302488      -0.670550
      2   2   -1.0000      -4.655514       3.708529      -2.147800      -0.779587      -0.490034      -0.390014
      3   1    1.0000       1.908622       1.087318      -0.435658       0.044671      -0.729526       0.682493
      4   2   -1.0000       2.130416      -2.737251      -1.178439       0.564335      -0.793883       0.226441
      5   2   -1.0000       0.865490      -0.259662       4.157586      -0.874485       0.207451      -0.438452
ITEM: TIMESTEP
3800
ITEM: NUMBER OF ATOMS
5
ITEM: BOX BOUNDS ff ff ff
-5.00000000    5.00000000     
-5.00000000    5.00000000     
-5.00000000    5.00000000     
ITEM: ATOMS id type q x y z mux muy muz
      1   1    1.0000      -3.742164       4.168107      -1.966589      -0.787024      -0.151155      -0.598118
      2   2   -1.0000      -4.648477       3.772771      -2.128412      -0.677650      -0.684204      -0.269545
      3   1    1.0000       1.927988       1.073265      -0.432960       0.032400      -0.735358       0.676903
      4   2   -1.0000       2.108118      -2.728451      -1.187697       0.551027      -0.809261       0.203632
      5   2   -1.0000       0.873397      -0.288727       4.176694      -0.888627       0.190492      -0.417198
ITEM: TIMESTEP
3900
ITEM: NUMBER OF ATOMS
5
ITEM: BOX BOUNDS ff ff ff
-5.00000000    5.00000000     
-5.00000000    5.00000000     
-5.00000000    5.00000000     
ITEM: ATOMS id type q x y z mux muy muz