ITEM: TIMESTEP
0
ITEM: NUMBER OF ATOMS
5
ITEM: BOX BOUNDS ff ff ff
-5.00000000    5.00000000     
-5.00000000    5.00000000     
-5.00000000    5.00000000     
ITEM: ATOMS id type q x y z mux muy muz
      1   1    1.0000      -0.472104       2.933459       2.689990      -0.682517       0.723100       0.106287
      2   2   -1.0000       1.677524       3.548216       4.392090       0.392648      -0.669579       0.630469
      3   1    1.0000       0.799469      -2.625698      -1.013189      -0.220843      -0.957881       0.183553
      4   2   -1.0000       2.583072       1.508512      -3.222208       0.117680      -0.351576      -0.928733
      5   2   -1.0000      -4.487861       1.829882      -2.489202      -0.045667       0.196805      -0.979379
ITEM: TIMESTEP
100
ITEM: NUMBER OF ATOMS
5
ITEM: BOX BOUNDS ff ff ff
-5.00000000    5.00000000     
-5.00000000    5.00000000     
-5.00000000    5.00000000     
ITEM: ATOMS id type q x y z mux muy muz
      1   1    1.0000      -0.407189       2.934489       2.665927      -0.663881       0.742434       0.089739
      2   2   -1.0000       1.673183       3.591492       4.382356       0.392085      -0.645819       0.655124
      3   1    1.0000       0.763056      -2.664207      -0.961095      -0.221552      -0.956926       0.187636
      4   2   -1.0000       2.584563       1.476134      -3.241336       0.120279      -0.351958      -0.928256
      5   2   -1.0000      -4.513512       1.856464      -2.488372      -0.030611       0.154111      -0.987579
ITEM: TIMESTEP
200
ITEM: NUMBER OF ATOMS
5
ITEM: BOX BOUNDS ff ff ff
-5.00000000    5.00000000     
-5.00000000    5.00000000     
-5.00000000    5.00000000     
ITEM: ATOMS id type q x y z mux muy muz
      1   1    1.0000      -0.341113       2.935532       2.642399      -0.640520       0.763383       0.083554
      2   2   -1.0000       1.667314       3.634472       4.372177       0.397328      -0.625986       0.671023
      3   1    1.0000       0.726840      -2.702146      -0.909380      -0.222700      -0.956181       0.190058
      4   2   -1.0000       2.586093       1.443712      -3.260348       0.121765      -0.350512      -0.928609
      5   2   -1.0000      -4.539033       1.882801      -2.487368      -0.014821       0.111610      -0.993642
ITEM: TIMESTEP
300
ITEM: NUMBER OF ATOMS
5
ITEM: BOX BOUNDS ff ff ff
-5.00000000    5.00000000     
-5.00000000    5.00000000     
-5.00000000    5.00000000     
ITEM: ATOMS id type q x y z mux muy muz
      1   1    1.0000      -0.273824       2.936637       2.619523      -0.613343       0.785239       0.084919
      2   2   -1.0000       1.659835       3.677091       4.361452       0.406836      -0.608888       0.680984
      3   1    1.0000       0.690842      -2.739503      -0.858070      -0.224110      -0.955605       0.191295
      4   2   -1.0000       2.587658       1.411263      -3.279227       0.122488      -0.347817      -0.929527
      5   2   -1.0000      -4.564410       1.908884      -2.486197       0.001580       0.069614      -0.997573
ITEM: TIMESTEP
400
ITEM: NUMBER OF ATOMS
5
ITEM: BOX BOUNDS ff ff ff
-5.00000000    5.00000000     
-5.00000000    5.00000000     
-5.00000000    5.00000000     
ITEM: ATOMS id type q x y z mux muy muz
      1   1    1.0000      -0.205264       2.937870       2.597440      -0.582857       0.807364       0.091877
      2   2   -1.0000       1.650655       3.719258       4.350061       0.419433      -0.593363       0.687020
      3   1    1.0000       0.655084      -2.776267      -0.807196      -0.225673      -0.955161       0.191677
      4   2   -1.0000       2.589256       1.378810      -3.297957       0.122692      -0.344272      -0.930819
      5   2   -1.0000      -4.589629       1.934701      -2.484867       0.018504       0.028331      -0.999427
ITEM: TIMESTEP
500
ITEM: NUMBER OF ATOMS
5
ITEM: BOX BOUNDS ff ff ff
-5.00000000    5.00000000     
-5.00000000    5.00000000     
-5.00000000    5.00000000     
ITEM: ATOMS id type q x y z mux muy muz
      1   1    1.0000      -0.135372       2.939320       2.576315      -0.549388       0.829184       0.103091
      2   2   -1.0000       1.639675       3.760861       4.337861       0.434251      -0.578403       0.690562
      3   1    1.0000       0.619590      -2.812422      -0.756789      -0.227316      -0.954820       0.191433
      4   2   -1.0000       2.590883       1.346376      -3.316519       0.122543      -0.340151      -0.932352
      5   2   -1.0000      -4.614675       1.960237      -2.483387       0.035883      -0.012078      -0.999283
ITEM: TIMESTEP
600
ITEM: NUMBER OF ATOMS
5
ITEM: BOX BOUNDS ff ff ff
-5.00000000    5.00000000     
-5.00000000    5.00000000     
-5.00000000    5.00000000     
ITEM: ATOMS id type q x y z mux muy muz
      1   1    1.0000      -0.064089       2.941095       2.556338      -0.513192       0.850173       0.117643
      2   2   -1.0000       1.626796       3.801760       4.324690       0.450642      -0.563169       0.692649
      3   1    1.0000       0.584386      -2.847951      -0.706886      -0.228994      -0.954562       0.190717
      4   2   -1.0000       2.592538       1.313989      -3.334896       0.122151      -0.335638      -0.934037
      5   2   -1.0000      -4.639531       1.985479      -2.481765       0.053665      -0.051489      -0.997231
ITEM: TIMESTEP
700
ITEM: NUMBER OF ATOMS
5
ITEM: BOX BOUNDS ff ff ff
-5.00000000    5.00000000     
-5.00000000    5.00000000     
-5.00000000    5.00000000     
ITEM: ATOMS id type q x y z mux muy muz
      1   1    1.0000       0.008637       2.943333       2.537725      -0.474529       0.869844       0.134883
      2   2   -1.0000       1.611922       3.841790       4.310359       0.468108      -0.546953       0.694058
      3   1    1.0000       0.549501      -2.882834      -0.657526      -0.230683      -0.954371       0.189636
      4   2   -1.0000       2.594219       1.281676      -3.353066       0.121589      -0.330863      -0.935813
      5   2   -1.0000      -4.664178       2.010407      -2.480012       0.071807      -0.089792      -0.993369
ITEM: TIMESTEP
800
ITEM: NUMBER OF ATOMS
5
ITEM: BOX BOUNDS ff ff ff
-5.00000000    5.00000000     
-5.00000000    5.00000000     
-5.00000000    5.00000000     
ITEM: ATOMS id type q x y z mux muy muz
      1   1    1.0000       0.082844       2.946196       2.520722      -0.433691       0.887746       0.154336
      2   2   -1.0000       1.594966       3.880751       4.294658       0.486233      -0.529153       0.695395
      3   1    1.0000       0.514966      -2.917049      -0.608752      -0.232366      -0.954234       0.188264
      4   2   -1.0000       2.595923       1.249472      -3.371008       0.120903      -0.325912      -0.937637
      5   2   -1.0000      -4.688598       2.035002      -2.478139       0.090275      -0.126898      -0.987799
ITEM: TIMESTEP
900
ITEM: NUMBER OF ATOMS
5
ITEM: BOX BOUNDS ff ff ff
-5.00000000    5.00000000     
-5.00000000    5.00000000     
-5.00000000    5.00000000     
ITEM: ATOMS id type q x y z mux muy muz
      1   1    1.0000       0.158551       2.949877       2.505603      -0.391033       0.903463       0.175636
      2   2   -1.0000       1.575851       3.918409       4.277347       0.504637      -0.509232       0.697154
      3   1    1.0000       0.480816      -2.950568      -0.560614      -0.234038      -0.954142       0.186655
      4   2   -1.0000       2.597650       1.217412      -3.388699       0.120123      -0.320848      -0.939482
      5   2   -1.0000      -4.712768       2.059242      -2.476157       0.109043      -0.162730      -0.980627
ITEM: TIMESTEP
1000
ITEM: NUMBER OF ATOMS
5
ITEM: BOX BOUNDS ff ff ff
-5.00000000    5.00000000     
-5.00000000    5.00000000     
-5.00000000    5.00000000     
ITEM: ATOMS id type q x y z mux muy muz
      1   1    1.0000       0.235750       2.954604       2.492676      -0.346977       0.916631       0.198482
      2   2   -1.0000       1.554525       3.954492       4.258162       0.522945      -0.486699       0.699752
      3   1    1.0000       0.447091      -2.983363      -0.513165      -0.235697      -0.954086       0.184844
      4   2   -1.0000       2.599398       1.185537      -3.406114       0.119266      -0.315713      -0.941329
      5   2   -1.0000      -4.736664       2.083101      -2.474078       0.128092      -0.197223      -0.971955
ITEM: TIMESTEP
1100
ITEM: NUMBER OF ATOMS
5
ITEM: BOX BOUNDS ff ff ff
-5.00000000    5.00000000     
-5.00000000    5.00000000     
-5.00000000    5.00000000     
ITEM: ATOMS id type q x y z mux muy muz
      1   1    1.0000       0.314396       2.960639       2.482282      -0.302025       0.926941       0.222621
      2   2   -1.0000       1.530960       3.988684       4.236809       0.540750      -0.461085       0.703556
      3   1    1.0000       0.413835      -3.015397      -0.466468      -0.237343      -0.954060       0.182860
      4   2   -1.0000       2.601167       1.153895      -3.423227       0.118341      -0.310538      -0.943166
      5   2   -1.0000      -4.760258       2.106550      -2.471916       0.147413      -0.230323      -0.961884
ITEM: TIMESTEP
1200
ITEM: NUMBER OF ATOMS
5
ITEM: BOX BOUNDS ff ff ff
-5.00000000    5.00000000     
-5.00000000    5.00000000     
-5.00000000    5.00000000     
ITEM: ATOMS id type q x y z mux muy muz
      1   1    1.0000       0.394396       2.968288       2.474803      -0.256753       0.934161       0.247833
      2   2   -1.0000       1.505165       4.020619       4.212962       0.557593      -0.431932       0.708890
      3   1    1.0000       0.381101      -3.046629      -0.420595      -0.238979      -0.954058       0.180724
      4   2   -1.0000       2.602953       1.122541      -3.440006       0.117352      -0.305343      -0.944983
      5   2   -1.0000      -4.783515       2.129554      -2.469683       0.167003      -0.261988      -0.950512
ITEM: TIMESTEP
1300
ITEM: NUMBER OF ATOMS
5
ITEM: BOX BOUNDS ff ff ff
-5.00000000    5.00000000     
-5.00000000    5.00000000     
-5.00000000    5.00000000     
ITEM: ATOMS id type q x y z mux muy muz
      1   1    1.0000       0.475594       2.977897       2.470659      -0.211812       0.938136       0.273928
      2   2   -1.0000       1.477197       4.049875       4.186267       0.572938      -0.398777       0.716044
      3   1    1.0000       0.348949      -3.077009      -0.375633      -0.240611      -0.954076       0.178453
      4   2   -1.0000       2.604758       1.091537      -3.456419       0.116301      -0.300144      -0.946777
      5   2   -1.0000      -4.806397       2.152071      -2.467393       0.186864      -0.292183      -0.937929
ITEM: TIMESTEP
1400
ITEM: NUMBER OF ATOMS
5
ITEM: BOX BOUNDS ff ff ff
-5.00000000    5.00000000     
-5.00000000    5.00000000     
-5.00000000    5.00000000     
ITEM: ATOMS id type q x y z mux muy muz
      1   1    1.0000       0.557752       2.989865       2.470319      -0.167923       0.938803       0.300749
      2   2   -1.0000       1.447171       4.075967       4.156333       0.586140      -0.361143       0.725269
      3   1    1.0000       0.317454      -3.106475      -0.331684      -0.242242      -0.954108       0.176059
      4   2   -1.0000       2.606577       1.060961      -3.472425       0.115186      -0.294951      -0.948544
      5   2   -1.0000      -4.828854       2.174053      -2.465063       0.207005      -0.320880      -0.924221
ITEM: TIMESTEP
1500
ITEM: NUMBER OF ATOMS
5
ITEM: BOX BOUNDS ff ff ff
-5.00000000    5.00000000     
-5.00000000    5.00000000     
-5.00000000    5.00000000     
ITEM: ATOMS id type q x y z mux muy muz
      1   1    1.0000       0.640527       3.004644       2.474305      -0.125872       0.936191       0.328181
      2   2   -1.0000       1.415283       4.098332       4.122735       0.596420      -0.318524       0.736767
      3   1    1.0000       0.286708      -3.134951      -0.288873      -0.243876      -0.954151       0.173554
      4   2   -1.0000       2.608407       1.030908      -3.487978       0.114005      -0.289771      -0.950282
      5   2   -1.0000      -4.850825       2.195438      -2.462707       0.227439      -0.348056      -0.909466
ITEM: TIMESTEP
1600
ITEM: NUMBER OF ATOMS
5
ITEM: BOX BOUNDS ff ff ff
-5.00000000    5.00000000     
-5.00000000    5.00000000     
-5.00000000    5.00000000     
ITEM: ATOMS id type q x y z mux muy muz
      1   1    1.0000       0.723436       3.022752       2.483201      -0.086511       0.930412       0.356158
      2   2   -1.0000       1.381828       4.116317       4.085005       0.602812      -0.270369       0.750678
      3   1    1.0000       0.256823      -3.162341      -0.247360      -0.245518      -0.954200       0.170949
      4   2   -1.0000       2.610246       1.001495      -3.503021       0.112755      -0.284608      -0.951990
      5   2   -1.0000      -4.872232       2.216150      -2.460345       0.248180      -0.373692      -0.893735
ITEM: TIMESTEP
1700
ITEM: NUMBER OF ATOMS
5
ITEM: BOX BOUNDS ff ff ff
-5.00000000    5.00000000     
-5.00000000    5.00000000     
-5.00000000    5.00000000     
ITEM: ATOMS id type q x y z mux muy muz
      1   1    1.0000       0.805804       3.044777       2.497667      -0.050775       0.921653       0.384677
      2   2   -1.0000       1.347239       4.129155       4.042638       0.604107      -0.216068       0.767052
      3   1    1.0000       0.227949      -3.188521      -0.207344      -0.247170      -0.954252       0.168253
      4   2   -1.0000       2.612084       0.972873      -3.517483       0.111434      -0.279465      -0.953667
      5   2   -1.0000      -4.892975       2.236089      -2.457998       0.269244      -0.397768      -0.877091
ITEM: TIMESTEP
1800
ITEM: NUMBER OF ATOMS
5
ITEM: BOX BOUNDS ff ff ff
-5.00000000    5.00000000     
-5.00000000    5.00000000     
-5.00000000    5.00000000     
ITEM: ATOMS id type q x y z mux muy muz
      1   1    1.0000       0.886701       3.071395       2.518453      -0.019706       0.910148       0.413814
      2   2   -1.0000       1.312130       4.135939       3.995079       0.598756      -0.154928       0.785805
      3   1    1.0000       0.200276      -3.213329      -0.169091      -0.248834      -0.954306       0.165476
      4   2   -1.0000       2.613912       0.945240      -3.531270       0.110042      -0.274342      -0.955315
      5   2   -1.0000      -4.912918       2.255127      -2.455690       0.290643      -0.420265      -0.859595
ITEM: TIMESTEP
1900
ITEM: NUMBER OF ATOMS
5
ITEM: BOX BOUNDS ff ff ff
-5.00000000    5.00000000     
-5.00000000    5.00000000     
-5.00000000    5.00000000     
ITEM: ATOMS id type q x y z mux muy muz
      1   1    1.0000       0.964830       3.103384       2.546418       0.005489       0.896140       0.443738
      2   2   -1.0000       1.277375       4.135583       3.941728       0.584726      -0.086146       0.806644
      3   1    1.0000       0.174062      -3.236549      -0.132950      -0.250510      -0.954357       0.162628
      4   2   -1.0000       2.615713       0.918861      -3.544263       0.108577      -0.269239      -0.956933
      5   2   -1.0000      -4.931879       2.273093      -2.453452       0.312382      -0.441158      -0.841307
ITEM: TIMESTEP
2000
ITEM: NUMBER OF ATOMS
5
ITEM: BOX BOUNDS ff ff ff
-5.00000000    5.00000000     
-5.00000000    5.00000000     
-5.00000000    5.00000000     
ITEM: ATOMS id type q x y z mux muy muz
      1   1    1.0000       1.038372       3.141644       2.582567       0.023324       0.879816       0.474742
      2   2   -1.0000       1.244216       4.126766       3.881931       0.559277      -0.008789       0.828934
      3   1    1.0000       0.149657      -3.257889      -0.099398      -0.252197      -0.954404       0.159718
      4   2   -1.0000       2.617462       0.894099      -3.556296       0.107042      -0.264155      -0.958522
      5   2   -1.0000      -4.949606       2.289752      -2.451323       0.334452      -0.460412      -0.822291
ITEM: TIMESTEP
2100
ITEM: NUMBER OF ATOMS
5
ITEM: BOX BOUNDS ff ff ff
-5.00000000    5.00000000     
-5.00000000    5.00000000     
-5.00000000    5.00000000     
ITEM: ATOMS id type q x y z mux muy muz
      1   1    1.0000       1.104754       3.187228       2.628097       0.031864       0.861192       0.507279
      2   2   -1.0000       1.214429       4.107852       3.814971       0.518596       0.078200       0.851436
      3   1    1.0000       0.127544      -3.276950      -0.069091      -0.253890      -0.954446       0.156758
      4   2   -1.0000       2.619123       0.871459      -3.567144       0.105443      -0.259087      -0.960081
      5   2   -1.0000      -4.965749       2.304783      -2.449353       0.356815      -0.477980      -0.802632
ITEM: TIMESTEP
2200
ITEM: NUMBER OF ATOMS
5
ITEM: BOX BOUNDS ff ff ff
-5.00000000    5.00000000     
-5.00000000    5.00000000     
-5.00000000    5.00000000     
ITEM: ATOMS id type q x y z mux muy muz
      1   1    1.0000       1.160332       3.241426       2.684539       0.028440       0.839872       0.542038
      2   2   -1.0000       1.190559       4.076752       3.739974       0.457235       0.175910       0.871775
      3   1    1.0000       0.108389      -3.293194      -0.042927      -0.255583      -0.954481       0.153762
      4   2   -1.0000       2.620638       0.851642      -3.576496       0.103788      -0.254038      -0.961610
      5   2   -1.0000      -4.979818       2.317746      -2.447609       0.379384      -0.493790      -0.782457
ITEM: TIMESTEP
2300
ITEM: NUMBER OF ATOMS
5
ITEM: BOX BOUNDS ff ff ff
-5.00000000    5.00000000     
-5.00000000    5.00000000     
-5.00000000    5.00000000     
ITEM: ATOMS id type q x y z mux muy muz
      1   1    1.0000       1.200108       3.306149       2.754321       0.009312       0.814488       0.580106
      2   2   -1.0000       1.176168       4.030507       3.655363       0.367322       0.285057       0.885334
      3   1    1.0000       0.093062      -3.305932      -0.022076      -0.257262      -0.954511       0.150748
      4   2   -1.0000       2.621928       0.835582      -3.583948       0.102091      -0.249011      -0.963105
      5   2   -1.0000      -4.991166       2.328066      -2.446181       0.401970      -0.507730      -0.761991
ITEM: TIMESTEP
2400
ITEM: NUMBER OF ATOMS
5
ITEM: BOX BOUNDS ff ff ff
-5.00000000    5.00000000     
-5.00000000    5.00000000     
-5.00000000    5.00000000     
ITEM: ATOMS id type q x y z mux muy muz
      1   1    1.0000       1.219016       3.370199       2.824041      -0.029918       0.781297       0.623442
      2   2   -1.0000       1.174754       3.979177       3.575464       0.238430       0.404493       0.882914
      3   1    1.0000       0.082511      -3.314457      -0.007796      -0.258904      -0.954537       0.147744
      4   2   -1.0000       2.622888       0.824326      -3.589062       0.100379      -0.244025      -0.964560
      5   2   -1.0000      -4.999068       2.335127      -2.445167       0.424199      -0.519625      -0.741651
ITEM: TIMESTEP
2500
ITEM: NUMBER OF ATOMS
5
ITEM: BOX BOUNDS ff ff ff
-5.00000000    5.00000000     
-5.00000000    5.00000000     
-5.00000000    5.00000000     
ITEM: ATOMS id type q x y z mux muy muz
      1   1    1.0000       1.246540       3.336027       2.762587      -0.083142       0.736315       0.671512
      2   2   -1.0000       1.177135       4.035067       3.619593       0.078282       0.518922       0.851229
      3   1    1.0000       0.064494      -3.328621       0.016471      -0.260473      -0.954564       0.144780
      4   2   -1.0000       2.624645       0.804776      -3.597788       0.098694      -0.239116      -0.965962
      5   2   -1.0000      -4.987371       2.347122      -2.443383       0.445417      -0.529254      -0.722145
ITEM: TIMESTEP
2600
ITEM: NUMBER OF ATOMS
5
ITEM: BOX BOUNDS ff ff ff
-5.00000000    5.00000000     
-5.00000000    5.00000000     
-5.00000000    5.00000000     
ITEM: ATOMS id type q x y z mux muy muz
      1   1    1.0000       1.262634       3.312234       2.719157      -0.126779       0.687575       0.714960
      2   2   -1.0000       1.182673       4.074555       3.650537      -0.065704       0.602489       0.795418
      3   1    1.0000       0.051479      -3.338610       0.033932      -0.262017      -0.954606       0.141681
      4   2   -1.0000       2.625981       0.790439      -3.604090       0.096998      -0.234042      -0.967376
      5   2   -1.0000      -4.977642       2.355753      -2.442056       0.466385      -0.537106      -0.702853
ITEM: TIMESTEP
2700
ITEM: NUMBER OF ATOMS
5
ITEM: BOX BOUNDS ff ff ff
-5.00000000    5.00000000     
-5.00000000    5.00000000     
-5.00000000    5.00000000     
ITEM: ATOMS id type q x y z mux muy muz
      1   1    1.0000       1.299057       3.316795       2.688112      -0.151948       0.640709       0.752598
      2   2   -1.0000       1.203920       4.111814       3.648384      -0.175395       0.657858       0.732434
      3   1    1.0000       0.016821      -3.364701       0.080285      -0.263635      -0.954675       0.138174
      4   2   -1.0000       2.629671       0.751799      -3.620866       0.095189      -0.228403      -0.968902
      5   2   -1.0000      -4.951863       2.378665      -2.438434       0.489224      -0.543953      -0.681744
ITEM: TIMESTEP
2800
ITEM: NUMBER OF ATOMS
5
ITEM: BOX BOUNDS ff ff ff
-5.00000000    5.00000000     
-5.00000000    5.00000000     
-5.00000000    5.00000000     
ITEM: ATOMS id type q x y z mux muy muz
      1   1    1.0000       1.341839       3.358395       2.695490      -0.156417       0.602469       0.782665
      2   2   -1.0000       1.230855       4.120758       3.600921      -0.241767       0.691552       0.680665
      3   1    1.0000      -0.025049      -3.395925       0.136199      -0.265265      -0.954774       0.134319
      4   2   -1.0000       2.634202       0.704836      -3.641129       0.093333      -0.222347      -0.970490
      5   2   -1.0000      -4.920793       2.406308      -2.434000       0.514370      -0.549735      -0.658190
ITEM: TIMESTEP
2900
ITEM: NUMBER OF ATOMS
5
ITEM: BOX BOUNDS ff ff ff
-5.00000000    5.00000000     
-5.00000000    5.00000000     
-5.00000000    5.00000000     
ITEM: ATOMS id type q x y z mux muy muz
      1   1    1.0000       1.376166       3.427077       2.743491      -0.142410       0.578517       0.803142
      2   2   -1.0000       1.254186       4.093869       3.519812      -0.263403       0.710091       0.652985
      3   1    1.0000      -0.059650      -3.421489       0.182338      -0.266806      -0.954898       0.130325
      4   2   -1.0000       2.638003       0.665789      -3.657873       0.091534      -0.216230      -0.972042
      5   2   -1.0000      -4.895175       2.429125      -2.430287       0.541176      -0.554100      -0.632536
ITEM: TIMESTEP
3000
ITEM: NUMBER OF ATOMS
5
ITEM: BOX BOUNDS ff ff ff
-5.00000000    5.00000000     
-5.00000000    5.00000000     
-5.00000000    5.00000000     
ITEM: ATOMS id type q x y z mux muy muz
      1   1    1.0000       1.411898       3.441769       2.739775      -0.118006       0.572769       0.811178
      2   2   -1.0000       1.258814       4.108427       3.500397      -0.246238       0.716354       0.652843
      3   1    1.0000      -0.083846      -3.439142       0.214538      -0.268204      -0.955038       0.126368
      4   2   -1.0000       2.640715       0.638259      -3.669586       0.089851      -0.210317      -0.973496
      5   2   -1.0000      -4.877317       2.445059      -2.427644       0.568677      -0.556748      -0.605506
ITEM: TIMESTEP
3100
ITEM: NUMBER OF ATOMS
5
ITEM: BOX BOUNDS ff ff ff
-5.00000000    5.00000000     
-5.00000000    5.00000000     
-5.00000000    5.00000000     
ITEM: ATOMS id type q x y z mux muy muz
      1   1    1.0000       1.458512       3.417967       2.691519      -0.101711       0.582225       0.806641
      2   2   -1.0000       1.253070       4.161839       3.525287      -0.215877       0.712918       0.667192
      3   1    1.0000      -0.108314      -3.456734       0.247028      -0.269468      -0.955186       0.122499
      4   2   -1.0000       2.643521       0.610152      -3.681435       0.088282      -0.204680      -0.974840
      5   2   -1.0000      -4.859322       2.461147      -2.424918       0.596158      -0.557549      -0.577698
ITEM: TIMESTEP
3200
ITEM: NUMBER OF ATOMS
5
ITEM: BOX BOUNDS ff ff ff
-5.00000000    5.00000000     
-5.00000000    5.00000000     
-5.00000000    5.00000000     
ITEM: ATOMS id type q x y z mux muy muz
      1   1    1.0000       1.511388       3.434480       2.677554      -0.103856       0.599703       0.793454
      2   2   -1.0000       1.259928       4.188597       3.505165      -0.194255       0.704318       0.682789
      3   1    1.0000      -0.144038      -3.482103       0.294368      -0.270641      -0.955340       0.118658
      4   2   -1.0000       2.647695       0.568792      -3.698730       0.086787      -0.199240      -0.976100
      5   2   -1.0000      -4.833131       2.484606      -2.420876       0.623531      -0.556476      -0.549130
ITEM: TIMESTEP
3300
ITEM: NUMBER OF ATOMS
5
ITEM: BOX BOUNDS ff ff ff
-5.00000000    5.00000000     
-5.00000000    5.00000000     
-5.00000000    5.00000000     
ITEM: ATOMS id type q x y z mux muy muz
      1   1    1.0000       1.549669       3.496227       2.709731      -0.128752       0.620903       0.773241
      2   2   -1.0000       1.285390       4.173017       3.436667      -0.191643       0.693591       0.694409
      3   1    1.0000      -0.182126      -3.508889       0.344762      -0.271743      -0.955497       0.114808
      4   2   -1.0000       2.652209       0.524423      -3.717163       0.085343      -0.193941      -0.977294
      5   2   -1.0000      -4.805274       2.509594      -2.416516       0.650731      -0.553502      -0.519794
ITEM: TIMESTEP
3400
ITEM: NUMBER OF ATOMS
5
ITEM: BOX BOUNDS ff ff ff
-5.00000000    5.00000000     
-5.00000000    5.00000000     
-5.00000000    5.00000000     
ITEM: ATOMS id type q x y z mux muy muz
      1   1    1.0000       1.586305       3.514419       2.701002      -0.180343       0.642448       0.744807
      2   2   -1.0000       1.298671       4.190973       3.417004      -0.214864       0.681900       0.699175
      3   1    1.0000      -0.211922      -3.529621       0.384118      -0.272769      -0.955661       0.110950
      4   2   -1.0000       2.655794       0.489476      -3.731583       0.083947      -0.188770      -0.978427
      5   2   -1.0000      -4.783538       2.529124      -2.413060       0.677500      -0.548633      -0.489892
ITEM: TIMESTEP
3500
ITEM: NUMBER OF ATOMS
5
ITEM: BOX BOUNDS ff ff ff
-5.00000000    5.00000000     
-5.00000000    5.00000000     
-5.00000000    5.00000000     
ITEM: ATOMS id type q x y z mux muy muz
      1   1    1.0000       1.630792       3.500535       2.655764      -0.242738       0.658820       0.712063
      2   2   -1.0000       1.305052       4.241689       3.433365      -0.252970       0.670554       0.697397
      3   1    1.0000      -0.242249      -3.550475       0.424101      -0.273713      -0.955832       0.107081
      4   2   -1.0000       2.659502       0.453638      -3.746257       0.082613      -0.183721      -0.979501
      5   2   -1.0000      -4.761477       2.548985      -2.409492       0.703491      -0.541942      -0.459782
ITEM: TIMESTEP
3600
ITEM: NUMBER OF ATOMS
5
ITEM: BOX BOUNDS ff ff ff
-5.00000000    5.00000000     
-5.00000000    5.00000000     
-5.00000000    5.00000000     
ITEM: ATOMS id type q x y z mux muy muz
      1   1    1.0000       1.665087       3.531288       2.646461      -0.296949       0.668526       0.681832
      2   2   -1.0000       1.338316       4.259844       3.404377      -0.289593       0.660890       0.692358
      3   1    1.0000      -0.282481      -3.577861       0.477058      -0.274589      -0.956016       0.103124
      4   2   -1.0000       2.664481       0.405786      -3.765718       0.081328      -0.178707      -0.980535
      5   2   -1.0000      -4.732276       2.575315      -2.404697       0.728930      -0.533370      -0.429160
ITEM: TIMESTEP
3700
ITEM: NUMBER OF ATOMS
5
ITEM: BOX BOUNDS ff ff ff
-5.00000000    5.00000000     
-5.00000000    5.00000000     
-5.00000000    5.00000000     
ITEM: ATOMS id type q x y z mux muy muz
      1   1    1.0000       1.683450       3.587769       2.667592      -0.335001       0.673342       0.659079
      2   2   -1.0000       1.381701       4.248060       3.348293      -0.316813       0.654057       0.686906
      3   1    1.0000      -0.319214      -3.602642       0.525340      -0.275393      -0.956216       0.099047
      4   2   -1.0000       2.669072       0.361841      -3.783479       0.080093      -0.173687      -0.981539
      5   2   -1.0000      -4.705665       2.599343      -2.400267       0.753973      -0.522811      -0.397735
ITEM: TIMESTEP
3800
ITEM: NUMBER OF ATOMS
5
ITEM: BOX BOUNDS ff ff ff
-5.00000000    5.00000000     
-5.00000000    5.00000000     
-5.00000000    5.00000000     
ITEM: ATOMS id type q x y z mux muy muz
      1   1    1.0000       1.733387       3.586911       2.627222      -0.353544       0.675456       0.647121
      2   2   -1.0000       1.398698       4.297365       3.350826      -0.330829       0.651242       0.682961
      3   1    1.0000      -0.358988      -3.629234       0.577547      -0.276116      -0.956430       0.094872
      4   2   -1.0000       2.674089       0.313979      -3.802705       0.078915      -0.168682      -0.982506
      5   2   -1.0000      -4.676902       2.625350      -2.395409       0.778510      -0.510222      -0.365506
ITEM: TIMESTEP
3900
ITEM: NUMBER OF ATOMS
5
ITEM: BOX BOUNDS ff ff ff
-5.00000000    5.00000000     
-5.00000000    5.00000000     
-5.00000000    5.00000000     
ITEM: ATOMS id type q x y z mux muy muz