ITEM: TIMESTEP
0
ITEM: NUMBER OF ATOMS
5
ITEM: BOX BOUNDS ff ff ff
-5.00000000    5.00000000     
-5.00000000    5.00000000     
-5.00000000    5.00000000     
ITEM: ATOMS id type q x y z mux muy muz
      1   1    1.0000       1.640983      -2.448791      -3.729353       0.238650      -0.966195       0.097538
      2   2   -1.0000      -4.414467      -1.945699      -3.423620       0.326299      -0.555647      -0.764712
      3   1    1.0000      -3.259950       2.607351      -4.842056       0.503242      -0.454577       0.734920
      4   2   -1.0000       0.578390      -1.205773       0.065409       0.518288       0.723150      -0.456544
      5   2   -1.0000       0.627659      -1.866196      -2.048464      -0.613215       0.629481       0.477202
ITEM: TIMESTEP
100
ITEM: NUMBER OF ATOMS
5
ITEM: BOX BOUNDS ff ff ff
-5.00000000    5.00000000     
-5.00000000    5.00000000     
-5.00000000    5.00000000     
ITEM: ATOMS id type q x y z mux muy muz
      1   1    1.0000       1.664071      -2.413558      -3.696958       0.208052      -0.966967       0.147275
      2   2   -1.0000      -4.397832      -1.928872      -3.446831       0.419414      -0.542812      -0.727631
      3   1    1.0000      -3.265465       2.582785      -4.885527       0.514893      -0.461408       0.722487
      4   2   -1.0000       0.607249      -1.244234       0.056427       0.517407       0.721354      -0.460368
      5   2   -1.0000       0.564592      -1.855229      -2.005196      -0.398061       0.657090       0.640141
ITEM: TIMESTEP
200
ITEM: NUMBER OF ATOMS
5
ITEM: BOX BOUNDS ff ff ff
-5.00000000    5.00000000     
-5.00000000    5.00000000     
-5.00000000    5.00000000     
ITEM: ATOMS id type q x y z mux muy muz
      1   1    1.0000       1.684980      -2.374878      -3.661498       0.158367      -0.961050       0.226500
      2   2   -1.0000      -4.381108      -1.911322      -3.470714       0.498022      -0.530982      -0.685589
      3   1    1.0000      -3.271162       2.557245      -4.929142       0.521754      -0.469744       0.712119
      4   2   -1.0000       0.636634      -1.282601       0.047576       0.519015       0.717776      -0.464136
      5   2   -1.0000       0.503272      -1.847553      -1.964306      -0.162486       0.625623       0.763017
ITEM: TIMESTEP
300
ITEM: NUMBER OF ATOMS
5
ITEM: BOX BOUNDS ff ff ff
-5.00000000    5.00000000     
-5.00000000    5.00000000     
-5.00000000    5.00000000     
ITEM: ATOMS id type q x y z mux muy muz
      1   1    1.0000       1.703268      -2.333053      -3.622954       0.089113      -0.941659       0.324556
      2   2   -1.0000      -4.364343      -1.893071      -3.495217       0.564516      -0.520927      -0.640279
      3   1    1.0000      -3.277038       2.530760      -4.972801       0.524620      -0.479490       0.703465
      4   2   -1.0000       0.666754      -1.320667       0.038756       0.521593       0.714564      -0.466197
      5   2   -1.0000       0.443975      -1.843077      -1.925869       0.069082       0.539751       0.838985
ITEM: TIMESTEP
400
ITEM: NUMBER OF ATOMS
5
ITEM: BOX BOUNDS ff ff ff
-5.00000000    5.00000000     
-5.00000000    5.00000000     
-5.00000000    5.00000000     
ITEM: ATOMS id type q x y z mux muy muz
      1   1    1.0000       1.718504      -2.288478      -3.581408       0.001660      -0.902393       0.430911
      2   2   -1.0000      -4.347584      -1.874148      -3.520285       0.621281      -0.512930      -0.592379
      3   1    1.0000      -3.283088       2.503360      -4.983549       0.524068      -0.490604       0.696176
      4   2   -1.0000       0.697817      -1.358285       0.029857       0.523675       0.713601      -0.465337
      5   2   -1.0000       0.386967      -1.841558      -1.889855       0.275577       0.409693       0.869603
ITEM: TIMESTEP
500
ITEM: NUMBER OF ATOMS
5
ITEM: BOX BOUNDS ff ff ff
-5.00000000    5.00000000     
-5.00000000    5.00000000     
-5.00000000    5.00000000     
ITEM: ATOMS id type q x y z mux muy muz
      1   1    1.0000       1.730316      -2.241651      -3.537110      -0.100495      -0.838698       0.535245
      2   2   -1.0000      -4.330886      -1.854598      -3.545839       0.670160      -0.507030      -0.542039
      3   1    1.0000      -3.289301       2.475106      -4.939447       0.520459      -0.503105       0.689933
      4   2   -1.0000       0.729969      -1.395346       0.020753       0.523845       0.716504      -0.460661
      5   2   -1.0000       0.332518      -1.842620      -1.856126       0.441357       0.247664       0.862477
ITEM: TIMESTEP
600
ITEM: NUMBER OF ATOMS
5
ITEM: BOX BOUNDS ff ff ff
-5.00000000    5.00000000     
-5.00000000    5.00000000     
-5.00000000    5.00000000     
ITEM: ATOMS id type q x y z mux muy muz
      1   1    1.0000       1.738451      -2.193106      -3.490462      -0.211768      -0.748944       0.627884
      2   2   -1.0000      -4.314310      -1.834484      -3.571770       0.712293      -0.503195      -0.489319
      3   1    1.0000      -3.295661       2.446082      -4.894903       0.514001      -0.517031       0.684458
      4   2   -1.0000       0.763263      -1.431792       0.011301       0.520719       0.724560      -0.451513
      5   2   -1.0000       0.280873      -1.845809      -1.824429       0.556088       0.065402       0.828546
ITEM: TIMESTEP
700
ITEM: NUMBER OF ATOMS
5
ITEM: BOX BOUNDS ff ff ff
-5.00000000    5.00000000     
-5.00000000    5.00000000     
-5.00000000    5.00000000     
ITEM: ATOMS id type q x y z mux muy muz
      1   1    1.0000       1.742801      -2.143244      -3.441850      -0.324916      -0.635195       0.700684
      2   2   -1.0000      -4.297883      -1.813838      -3.598004       0.748188      -0.501383      -0.434544
      3   1    1.0000      -3.302167       2.416336      -4.850036       0.504850      -0.532317       0.679533
      4   2   -1.0000       0.797712      -1.467704       0.001311       0.512964       0.738570      -0.437473
      5   2   -1.0000       0.232153      -1.850659      -1.794391       0.613337      -0.126760       0.779583
ITEM: TIMESTEP
800
ITEM: NUMBER OF ATOMS
5
ITEM: BOX BOUNDS ff ff ff
-5.00000000    5.00000000     
-5.00000000    5.00000000     
-5.00000000    5.00000000     
ITEM: ATOMS id type q x y z mux muy muz
      1   1    1.0000       1.743349      -2.092352      -3.391607      -0.431992      -0.503456       0.748275
      2   2   -1.0000      -4.281622      -1.792699      -3.624463       0.777888      -0.501577      -0.378564
      3   1    1.0000      -3.308815       2.385925      -4.804970       0.493214      -0.548741       0.674999
      4   2   -1.0000       0.833213      -1.503239      -0.009429       0.499442       0.758574      -0.418477
      5   2   -1.0000       0.186490      -1.856745      -1.765661       0.609005      -0.319201       0.726102
ITEM: TIMESTEP
900
ITEM: NUMBER OF ATOMS
5
ITEM: BOX BOUNDS ff ff ff
-5.00000000    5.00000000     
-5.00000000    5.00000000     
-5.00000000    5.00000000     
ITEM: ATOMS id type q x y z mux muy muz
      1   1    1.0000       1.740107      -2.040602      -3.339920      -0.525842      -0.362936       0.769264
      2   2   -1.0000      -4.265536      -1.771101      -3.651064       0.801254      -0.503770      -0.322812
      3   1    1.0000      -3.315604       2.354911      -4.759835       0.479433      -0.565909       0.670739
      4   2   -1.0000       0.869535      -1.538622      -0.021133       0.479466       0.783611      -0.395053
      5   2   -1.0000       0.144114      -1.863695      -1.738035       0.540750      -0.501039       0.675685
ITEM: TIMESTEP
1000
ITEM: NUMBER OF ATOMS
5
ITEM: BOX BOUNDS ff ff ff
-5.00000000    5.00000000     
-5.00000000    5.00000000     
-5.00000000    5.00000000     
ITEM: ATOMS id type q x y z mux muy muz
      1   1    1.0000       1.733040      -1.988086      -3.286745      -0.601740      -0.224056       0.766621
      2   2   -1.0000      -4.249624      -1.749079      -3.677726       0.818290      -0.507949      -0.269051
      3   1    1.0000      -3.322537       2.323355      -4.714758       0.463984      -0.583332       0.666666
      4   2   -1.0000       0.906313      -1.574127      -0.033972       0.453042       0.811740      -0.368553
      5   2   -1.0000       0.105422      -1.871172      -1.711566       0.409367      -0.658099       0.631921
ITEM: TIMESTEP
1100
ITEM: NUMBER OF ATOMS
5
ITEM: BOX BOUNDS ff ff ff
-5.00000000    5.00000000     
-5.00000000    5.00000000     
-5.00000000    5.00000000     
ITEM: ATOMS id type q x y z mux muy muz
      1   1    1.0000       1.722013      -1.934891      -3.231770      -0.658313      -0.095854       0.746616
      2   2   -1.0000      -4.233872      -1.726658      -3.704370       0.829351      -0.514082      -0.218855
      3   1    1.0000      -3.329617       2.291315      -4.669861       0.447386      -0.600567       0.662695
      4   2   -1.0000       0.943079      -1.610045      -0.048001       0.420907       0.840486      -0.341206
      5   2   -1.0000       0.071012      -1.878829      -1.686669       0.221815      -0.772934       0.594450
ITEM: TIMESTEP
1200
ITEM: NUMBER OF ATOMS
5
ITEM: BOX BOUNDS ff ff ff
-5.00000000    5.00000000     
-5.00000000    5.00000000     
-5.00000000    5.00000000     
ITEM: ATOMS id type q x y z mux muy muz
      1   1    1.0000       1.706767      -1.881207      -3.174452      -0.697177       0.015748       0.716726
      2   2   -1.0000      -4.218261      -1.703861      -3.730916       0.835098      -0.522144      -0.173138
      3   1    1.0000      -3.336852       2.258847      -4.625264       0.430044      -0.617365       0.658728
      4   2   -1.0000       0.979319      -1.646637      -0.063086       0.384235       0.867516      -0.315879
      5   2   -1.0000       0.041642      -1.886251      -1.664166      -0.006391      -0.828231       0.560350
ITEM: TIMESTEP
1300
ITEM: NUMBER OF ATOMS
5
ITEM: BOX BOUNDS ff ff ff
-5.00000000    5.00000000     
-5.00000000    5.00000000     
-5.00000000    5.00000000     
ITEM: ATOMS id type q x y z mux muy muz
      1   1    1.0000       1.686954      -1.827433      -3.114118      -0.721665       0.107899       0.683782
      2   2   -1.0000      -4.202774      -1.680715      -3.757272       0.836281      -0.532162      -0.132052
      3   1    1.0000      -3.344248       2.226024      -4.581110       0.412146      -0.633717       0.654628
      4   2   -1.0000       1.014558      -1.684058      -0.078857       0.344173       0.891142      -0.295654
      5   2   -1.0000       0.018125      -1.892926      -1.645257      -0.251975      -0.812116       0.526286
ITEM: TIMESTEP
1400
ITEM: NUMBER OF ATOMS
5
ITEM: BOX BOUNDS ff ff ff
-5.00000000    5.00000000     
-5.00000000    5.00000000     
-5.00000000    5.00000000     
ITEM: ATOMS id type q x y z mux muy muz
      1   1    1.0000       1.662206      -1.774268      -3.050126      -0.735606       0.179527       0.653187
      2   2   -1.0000      -4.187407      -1.657272      -3.783312       0.833505      -0.544245      -0.095219
      3   1    1.0000      -3.351808       2.192954      -4.537596       0.393661      -0.649798       0.650225
      4   2   -1.0000       1.048424      -1.722291      -0.094721       0.301488       0.910377      -0.283406
      5   2   -1.0000       0.001200      -1.898233      -1.631395      -0.487957      -0.722153       0.490299
ITEM: TIMESTEP
1500
ITEM: NUMBER OF ATOMS
5
ITEM: BOX BOUNDS ff ff ff
-5.00000000    5.00000000     
-5.00000000    5.00000000     
-5.00000000    5.00000000     
ITEM: ATOMS id type q x y z mux muy muz
      1   1    1.0000       1.632223      -1.722761      -2.982038      -0.742638       0.229988       0.628963
      2   2   -1.0000      -4.172189      -1.633628      -3.808858       0.827136      -0.558561      -0.062093
      3   1    1.0000      -3.359523       2.159819      -4.495009       0.374422      -0.665861       0.645319
      4   2   -1.0000       1.080684      -1.761086      -0.109947       0.256508       0.924664      -0.281424
      5   2   -1.0000      -0.008579      -1.901453      -1.624081      -0.688767      -0.566341       0.452612
ITEM: TIMESTEP
1600
ITEM: NUMBER OF ATOMS
5
ITEM: BOX BOUNDS ff ff ff
-5.00000000    5.00000000     
-5.00000000    5.00000000     
-5.00000000    5.00000000     
ITEM: ATOMS id type q x y z mux muy muz
      1   1    1.0000       1.596847      -1.674291      -2.909758      -0.745912       0.258291       0.613922
      2   2   -1.0000      -4.157189      -1.609937      -3.833669       0.817323      -0.575279      -0.032204
      3   1    1.0000      -3.367365       2.126880      -4.453737       0.354227      -0.682139       0.639695
      4   2   -1.0000       1.111225      -1.799959      -0.123804       0.209303       0.933529      -0.291059
      5   2   -1.0000      -0.010902      -1.901801      -1.624601      -0.834550      -0.361673       0.415595
ITEM: TIMESTEP
1700
ITEM: NUMBER OF ATOMS
5
ITEM: BOX BOUNDS ff ff ff
-5.00000000    5.00000000     
-5.00000000    5.00000000     
-5.00000000    5.00000000     
ITEM: ATOMS id type q x y z mux muy muz
      1   1    1.0000       1.556095      -1.630483      -2.833604      -0.747879       0.262949       0.609536
      2   2   -1.0000      -4.142514      -1.586406      -3.857459       0.804100      -0.594471      -0.005276
      3   1    1.0000      -3.375288       2.094468      -4.414248       0.332931      -0.698778       0.633140
      4   2   -1.0000       1.140002      -1.838231      -0.135698       0.160007       0.936389      -0.312367
      5   2   -1.0000      -0.005680      -1.898456      -1.633788      -0.914214      -0.131404       0.383334
ITEM: TIMESTEP
1800
ITEM: NUMBER OF ATOMS
5
ITEM: BOX BOUNDS ff ff ff
-5.00000000    5.00000000     
-5.00000000    5.00000000     
-5.00000000    5.00000000     
ITEM: ATOMS id type q x y z mux muy muz
      1   1    1.0000       1.510111      -1.593089      -2.754291      -0.749991       0.242237       0.615495
      2   2   -1.0000      -4.128297      -1.563282      -3.879919       0.787494      -0.616035       0.018791
      3   1    1.0000      -3.383227       2.062958      -4.377046       0.310502      -0.715806       0.625468
      4   2   -1.0000       1.166982      -1.875124      -0.145276       0.109127       0.932644      -0.343899
      5   2   -1.0000       0.007047      -1.890573      -1.651880      -0.927317       0.098468       0.361093
ITEM: TIMESTEP
1900
ITEM: NUMBER OF ATOMS
5
ITEM: BOX BOUNDS ff ff ff
-5.00000000    5.00000000     
-5.00000000    5.00000000     
-5.00000000    5.00000000     
ITEM: ATOMS id type q x y z mux muy muz
      1   1    1.0000       1.459064      -1.563894      -2.672881      -0.752456       0.194683       0.629213
      2   2   -1.0000      -4.114691      -1.540829      -3.900745       0.767621      -0.639655       0.039984
      3   1    1.0000      -3.391102       2.032741      -4.342619       0.287044      -0.733140       0.616532
      4   2   -1.0000       1.192081      -1.909844      -0.152450       0.057748       0.922023      -0.382803
      5   2   -1.0000       0.027263      -1.877283      -1.678488      -0.884457       0.303017       0.354847
ITEM: TIMESTEP
2000
ITEM: NUMBER OF ATOMS
5
ITEM: BOX BOUNDS ff ff ff
-5.00000000    5.00000000     
-5.00000000    5.00000000     
-5.00000000    5.00000000     
ITEM: ATOMS id type q x y z mux muy muz
      1   1    1.0000       1.402965      -1.544683      -2.590737      -0.754279       0.119748       0.645542
      2   2   -1.0000      -4.101866      -1.519337      -3.919646       0.744760      -0.664786       0.058237
      3   1    1.0000      -3.398808       2.004217      -4.311436       0.262812      -0.750588       0.606257
      4   2   -1.0000       1.215124      -1.941640      -0.157361       0.007580       0.905035      -0.425270
      5   2   -1.0000       0.055201      -1.857666      -1.712668      -0.806002       0.461226       0.370988
ITEM: TIMESTEP
2100
ITEM: NUMBER OF ATOMS
5
ITEM: BOX BOUNDS ff ff ff
-5.00000000    5.00000000     
-5.00000000    5.00000000     
-5.00000000    5.00000000     
ITEM: ATOMS id type q x y z mux muy muz
      1   1    1.0000       1.341369      -1.537276      -2.509562      -0.753836       0.018862       0.656791
      2   2   -1.0000      -4.090028      -1.499155      -3.936325       0.719454      -0.690645       0.073455
      3   1    1.0000      -3.406202       1.977839      -4.283965       0.238265      -0.767845       0.594680
      4   2   -1.0000       1.235807      -1.969794      -0.160303      -0.039058       0.883320      -0.467140
      5   2   -1.0000       0.091669      -1.830722      -1.753002      -0.719732       0.555977       0.415782
ITEM: TIMESTEP
2200
ITEM: NUMBER OF ATOMS
5
ITEM: BOX BOUNDS ff ff ff
-5.00000000    5.00000000     
-5.00000000    5.00000000     
-5.00000000    5.00000000     
ITEM: ATOMS id type q x y z mux muy muz
      1   1    1.0000       1.272754      -1.543555      -2.431516      -0.750276      -0.102763       0.653089
      2   2   -1.0000      -4.079461      -1.480773      -3.950436       0.692681      -0.716159       0.085496
      3   1    1.0000      -3.413069       1.954216      -4.260761       0.214177      -0.784437       0.582053
      4   2   -1.0000       1.253653      -1.993547      -0.161662      -0.079239       0.859804      -0.504439
      5   2   -1.0000       0.138739      -1.795450      -1.797651      -0.657879       0.569925       0.492321
ITEM: TIMESTEP
2300
ITEM: NUMBER OF ATOMS
5
ITEM: BOX BOUNDS ff ff ff
-5.00000000    5.00000000     
-5.00000000    5.00000000     
-5.00000000    5.00000000     
ITEM: ATOMS id type q x y z mux muy muz
      1   1    1.0000       1.192834      -1.565011      -2.359229      -0.746391      -0.232788       0.623466
      2   2   -1.0000      -4.070594      -1.464962      -3.961519       0.666036      -0.739947       0.094207
      3   1    1.0000      -3.419070       1.934277      -4.242554       0.191745      -0.799687       0.568977
      4   2   -1.0000       1.267958      -2.012003      -0.161903      -0.109552       0.838463      -0.533833
      5   2   -1.0000       0.201487      -1.751410      -1.844503      -0.650409       0.480059       0.588653
ITEM: TIMESTEP
2400
ITEM: NUMBER OF ATOMS
5
ITEM: BOX BOUNDS ff ff ff
-5.00000000    5.00000000     
-5.00000000    5.00000000     
-5.00000000    5.00000000     
ITEM: ATOMS id type q x y z mux muy muz
      1   1    1.0000       1.122154      -1.594881      -2.310643      -0.753832      -0.345176       0.559098
      2   2   -1.0000      -4.064024      -1.452864      -3.969028       0.641484      -0.760639       0.099631
      3   1    1.0000      -3.423711       1.919356      -4.230217       0.172326      -0.812873       0.556364
      4   2   -1.0000       1.277853      -2.024198      -0.161588      -0.126980       0.823192      -0.553382
      5   2   -1.0000       0.260343      -1.706521      -1.876257      -0.706285       0.270148       0.654356
ITEM: TIMESTEP
2500
ITEM: NUMBER OF ATOMS
5
ITEM: BOX BOUNDS ff ff ff
-5.00000000    5.00000000     
-5.00000000    5.00000000     
-5.00000000    5.00000000     
ITEM: ATOMS id type q x y z mux muy muz
      1   1    1.0000       1.172202      -1.641039      -2.335535      -0.787457      -0.390842       0.476608
      2   2   -1.0000      -4.050362      -1.427045      -3.983483       0.619957      -0.777931       0.102356
      3   1    1.0000      -3.433640       1.888036      -4.206448       0.156342      -0.823871       0.544788
      4   2   -1.0000       1.297105      -2.047021      -0.160681      -0.131974       0.815305      -0.563792
      5   2   -1.0000       0.187310      -1.632040      -1.819097      -0.778979       0.008244       0.626996
ITEM: TIMESTEP
2600
ITEM: NUMBER OF ATOMS
5
ITEM: BOX BOUNDS ff ff ff
-5.00000000    5.00000000     
-5.00000000    5.00000000     
-5.00000000    5.00000000     
ITEM: ATOMS id type q x y z mux muy muz
      1   1    1.0000       1.189966      -1.665480      -2.349476      -0.837966      -0.358985       0.411026
      2   2   -1.0000      -4.039712      -1.406503      -3.994080       0.598056      -0.794741       0.103517
      3   1    1.0000      -3.441516       1.863403      -4.188986       0.141040      -0.834557       0.532562
      4   2   -1.0000       1.311119      -2.063426      -0.160329      -0.129886       0.812371      -0.568492
      5   2   -1.0000       0.152758      -1.587103      -1.781069      -0.819445      -0.215976       0.530910
ITEM: TIMESTEP
2700
ITEM: NUMBER OF ATOMS
5
ITEM: BOX BOUNDS ff ff ff
-5.00000000    5.00000000     
-5.00000000    5.00000000     
-5.00000000    5.00000000     
ITEM: ATOMS id type q x y z mux muy muz
      1   1    1.0000       1.154383      -1.686899      -2.338155      -0.892472      -0.254209       0.372655
      2   2   -1.0000      -4.019624      -1.367071      -4.012996       0.572153      -0.813585       0.103538
      3   1    1.0000      -3.456568       1.816561      -4.157729       0.123923      -0.846501       0.517763
      4   2   -1.0000       1.335728      -2.092284      -0.160564      -0.122776       0.813110      -0.569015
      5   2   -1.0000       0.158696      -1.529416      -1.748311      -0.833326      -0.376963       0.404310
ITEM: TIMESTEP
2800
ITEM: NUMBER OF ATOMS
5
ITEM: BOX BOUNDS ff ff ff
-5.00000000    5.00000000     
-5.00000000    5.00000000     
-5.00000000    5.00000000     
ITEM: ATOMS id type q x y z mux muy muz
      1   1    1.0000       1.078750      -1.684589      -2.297336      -0.925955      -0.076056       0.369896
      2   2   -1.0000      -3.998427      -1.324943      -4.032114       0.541364      -0.834547       0.102254
      3   1    1.0000      -3.472590       1.766854      -4.126039       0.104605      -0.859746       0.499894
      4   2   -1.0000       1.360204      -2.121235      -0.161573      -0.110846       0.817039      -0.565827
      5   2   -1.0000       0.204679      -1.495196      -1.743556      -0.847235      -0.440638       0.296699
ITEM: TIMESTEP
2900
ITEM: NUMBER OF ATOMS
5
ITEM: BOX BOUNDS ff ff ff
-5.00000000    5.00000000     
-5.00000000    5.00000000     
-5.00000000    5.00000000     
ITEM: ATOMS id type q x y z mux muy muz
      1   1    1.0000       1.049375      -1.667008      -2.272184      -0.900800       0.154611       0.405776
      2   2   -1.0000      -3.980246      -1.288280      -4.047658       0.507552      -0.855862       0.099455
      3   1    1.0000      -3.486475       1.723939      -4.100143       0.084376      -0.873233       0.479943
      4   2   -1.0000       1.379798      -2.144708      -0.163053      -0.094581       0.822578      -0.560732
      5   2   -1.0000       0.210163      -1.483052      -1.730618      -0.890818      -0.362443       0.274003
ITEM: TIMESTEP
3000
ITEM: NUMBER OF ATOMS
5
ITEM: BOX BOUNDS ff ff ff
-5.00000000    5.00000000     
-5.00000000    5.00000000     
-5.00000000    5.00000000     
ITEM: ATOMS id type q x y z mux muy muz
      1   1    1.0000       1.087780      -1.640751      -2.272464      -0.821239       0.341273       0.457273
      2   2   -1.0000      -3.958381      -1.243470      -4.065253       0.476040      -0.874223       0.095496
      3   1    1.0000      -3.503361       1.671929      -4.070637       0.066264      -0.885008       0.460837
      4   2   -1.0000       1.401727      -2.171434      -0.165286      -0.078187       0.826844      -0.556971
      5   2   -1.0000       0.144851      -1.475383      -1.686034      -0.924697      -0.171965       0.339653
ITEM: TIMESTEP
3100
ITEM: NUMBER OF ATOMS
5
ITEM: BOX BOUNDS ff ff ff
-5.00000000    5.00000000     
-5.00000000    5.00000000     
-5.00000000    5.00000000     
ITEM: ATOMS id type q x y z mux muy muz
      1   1    1.0000       1.083669      -1.601331      -2.236787      -0.740520       0.441128       0.506987
      2   2   -1.0000      -3.934111      -1.192855      -4.083625       0.445152      -0.890899       0.090217
      3   1    1.0000      -3.522316       1.613642      -4.039579       0.049027      -0.896062       0.441213
      4   2   -1.0000       1.424570      -2.199816      -0.167787      -0.063674       0.828709      -0.556046
      5   2   -1.0000       0.120803      -1.478750      -1.674422      -0.901437       0.045613       0.430500
ITEM: TIMESTEP
3200
ITEM: NUMBER OF ATOMS
5
ITEM: BOX BOUNDS ff ff ff
-5.00000000    5.00000000     
-5.00000000    5.00000000     
-5.00000000    5.00000000     
ITEM: ATOMS id type q x y z mux muy muz
      1   1    1.0000       1.031085      -1.564734      -2.173156      -0.697271       0.452798       0.555687
      2   2   -1.0000      -3.909418      -1.140280      -4.101071       0.409909      -0.908380       0.082584
      3   1    1.0000      -3.541826       1.553582      -4.009767       0.029805      -0.908242       0.417384
      4   2   -1.0000       1.446547      -2.227558      -0.170007      -0.049422       0.827651      -0.559063
      5   2   -1.0000       0.146226      -1.480119      -1.692129      -0.821023       0.243838       0.516201
ITEM: TIMESTEP
3300
ITEM: NUMBER OF ATOMS
5
ITEM: BOX BOUNDS ff ff ff
-5.00000000    5.00000000     
-5.00000000    5.00000000     
-5.00000000    5.00000000     
ITEM: ATOMS id type q x y z mux muy muz
      1   1    1.0000       1.040074      -1.555777      -2.153928      -0.723378       0.356702       0.591175
      2   2   -1.0000      -3.885788      -1.088616      -4.116405       0.366791      -0.927561       0.071373
      3   1    1.0000      -3.560730       1.495073      -3.983142       0.006852      -0.922401       0.386173
      4   2   -1.0000       1.466569      -2.253025      -0.171629      -0.033034       0.822983      -0.567104
      5   2   -1.0000       0.112490      -1.456763      -1.669754      -0.722878       0.374741       0.580531
ITEM: TIMESTEP
3400
ITEM: NUMBER OF ATOMS
5
ITEM: BOX BOUNDS ff ff ff
-5.00000000    5.00000000     
-5.00000000    5.00000000     
-5.00000000    5.00000000     
ITEM: ATOMS id type q x y z mux muy muz
      1   1    1.0000       1.057356      -1.566079      -2.154321      -0.790349       0.184618       0.584179
      2   2   -1.0000      -3.864058      -1.039366      -4.129038       0.319097      -0.946004       0.057043
      3   1    1.0000      -3.578343       1.439833      -3.960655      -0.017723      -0.936917       0.349101
      4   2   -1.0000       1.484128      -2.275340      -0.172585      -0.015433       0.815701      -0.578268
      5   2   -1.0000       0.073532      -1.418157      -1.633423      -0.666806       0.416638       0.617886
ITEM: TIMESTEP
3500
ITEM: NUMBER OF ATOMS
5
ITEM: BOX BOUNDS ff ff ff
-5.00000000    5.00000000     
-5.00000000    5.00000000     
-5.00000000    5.00000000     
ITEM: ATOMS id type q x y z mux muy muz
      1   1    1.0000       1.011846      -1.579920      -2.131809      -0.846294       0.012504       0.532570
      2   2   -1.0000      -3.837610      -0.976849      -4.142578       0.272054      -0.961413       0.040879
      3   1    1.0000      -3.600029       1.370365      -3.935709      -0.040866      -0.949998       0.309569
      4   2   -1.0000       1.504573      -2.301146      -0.173258       0.002018       0.807986      -0.589199
      5   2   -1.0000       0.093835      -1.371559      -1.614686      -0.671183       0.390920       0.629837
ITEM: TIMESTEP
3600
ITEM: NUMBER OF ATOMS
5
ITEM: BOX BOUNDS ff ff ff
-5.00000000    5.00000000     
-5.00000000    5.00000000     
-5.00000000    5.00000000     
ITEM: ATOMS id type q x y z mux muy muz
      1   1    1.0000       0.956555      -1.589852      -2.111515      -0.881256      -0.100965       0.461730
      2   2   -1.0000      -3.815383      -0.921423      -4.152196       0.226090      -0.973845       0.022583
      3   1    1.0000      -3.618448       1.309374      -3.916978      -0.062000      -0.961606       0.267339
      4   2   -1.0000       1.520952      -2.321630      -0.173676       0.020638       0.800691      -0.598721
      5   2   -1.0000       0.128938      -1.335577      -1.602086      -0.722768       0.324304       0.610273
ITEM: TIMESTEP
3700
ITEM: NUMBER OF ATOMS
5
ITEM: BOX BOUNDS ff ff ff
-5.00000000    5.00000000     
-5.00000000    5.00000000     
-5.00000000    5.00000000     
ITEM: ATOMS id type q x y z mux muy muz
      1   1    1.0000       0.957519      -1.609954      -2.129327      -0.903331      -0.115185       0.413189
      2   2   -1.0000      -3.790630      -0.855424      -4.160625       0.180997      -0.983482       0.001624
      3   1    1.0000      -3.639164       1.237480      -3.898910      -0.080814      -0.971778       0.221621
      4   2   -1.0000       1.538195      -2.343068      -0.174240       0.041067       0.794017      -0.606507
      5   2   -1.0000       0.106695      -1.288144      -1.549310      -0.787639       0.253095       0.561754
ITEM: TIMESTEP
3800
ITEM: NUMBER OF ATOMS
5
ITEM: BOX BOUNDS ff ff ff
-5.00000000    5.00000000     
-5.00000000    5.00000000     
-5.00000000    5.00000000     
ITEM: ATOMS id type q x y z mux muy muz
      1   1    1.0000       0.945229      -1.609366      -2.130358      -0.910762      -0.043536       0.410630
      2   2   -1.0000      -3.767537      -0.788443      -4.166009       0.138631      -0.990106      -0.021698
      3   1    1.0000      -3.658660       1.165255      -3.884953      -0.096062      -0.980158       0.173385
      4   2   -1.0000       1.553313      -2.361915      -0.174954       0.061327       0.788501      -0.611968
      5   2   -1.0000       0.100270      -1.264639      -1.516942      -0.834296       0.208191       0.510497
ITEM: TIMESTEP
3900
ITEM: NUMBER OF ATOMS
5
ITEM: BOX BOUNDS ff ff ff
-5.00000000    5.00000000     
-5.00000000    5.00000000     
-5.00000000    5.00000000     
ITEM: ATOMS id type q x y z mux muy muz