ITEM: TIMESTEP
0
ITEM: NUMBER OF ATOMS
5
ITEM: BOX BOUNDS ff ff ff
-5.00000000    5.00000000     
-5.00000000    5.00000000     
-5.00000000    5.00000000     
ITEM: ATOMS id type q x y z mux muy muz
      1   1    1.0000      -0.387938       0.447867       4.507909       0.324960       0.728953      -0.602519
      2   2   -1.0000      -1.334850       4.801006       0.422903       0.037163       0.683848       0.728677
      3   1    1.0000      -2.575081      -3.082712      -3.583698       0.998303       0.006571      -0.057863
      4   2   -1.0000      -0.470704      -4.780986      -0.549293      -0.082856       0.263093      -0.961206
      5   2   -1.0000       4.884056       1.701144       2.597938       0.765441      -0.596635      -0.241096
ITEM: TIMESTEP
100
ITEM: NUMBER OF ATOMS
5
ITEM: BOX BOUNDS ff ff ff
-5.00000000    5.00000000     
-5.00000000    5.00000000     
-5.00000000    5.00000000     
ITEM: ATOMS id type q x y z mux muy muz
      1   1    1.0000      -0.384003       0.399469       4.549037       0.310258       0.732788      -0.605608
      2   2   -1.0000      -1.358963       4.802446       0.413208       0.043124       0.679094       0.732783
      3   1    1.0000      -2.552409      -3.018246      -3.648180       0.990222       0.107560      -0.088831
      4   2   -1.0000      -0.474001      -4.805984      -0.523997      -0.030508      -0.014335      -0.999432
      5   2   -1.0000       4.884860       1.708634       2.605692       0.721995      -0.658900      -0.211125
ITEM: TIMESTEP
200
ITEM: NUMBER OF ATOMS
5
ITEM: BOX BOUNDS ff ff ff
-5.00000000    5.00000000     
-5.00000000    5.00000000     
-5.00000000    5.00000000     
ITEM: ATOMS id type q x y z mux muy muz
      1   1    1.0000      -0.379690       0.351094       4.589908       0.297870       0.734763      -0.609424
      2   2   -1.0000      -1.383299       4.803737       0.403567       0.050194       0.675708       0.735459
      3   1    1.0000      -2.529540      -2.953540      -3.712485       0.973152       0.200366      -0.113267
      4   2   -1.0000      -0.477431      -4.830993      -0.498913       0.027529      -0.296452      -0.954651
      5   2   -1.0000       4.885444       1.716022       2.613682       0.678202      -0.711653      -0.183283
ITEM: TIMESTEP
300
ITEM: NUMBER OF ATOMS
5
ITEM: BOX BOUNDS ff ff ff
-5.00000000    5.00000000     
-5.00000000    5.00000000     
-5.00000000    5.00000000     
ITEM: ATOMS id type q x y z mux muy muz
      1   1    1.0000      -0.375012       0.302728       4.630525       0.287711       0.734999      -0.614002
      2   2   -1.0000      -1.407861       4.804885       0.393971       0.058282       0.673592       0.736802
      3   1    1.0000      -2.506457      -2.888589      -3.776572       0.949729       0.284334      -0.131028
      4   2   -1.0000      -0.481010      -4.856011      -0.474074       0.085855      -0.557664      -0.825615
      5   2   -1.0000       4.885823       1.723305       2.621910       0.635457      -0.755793      -0.158025
ITEM: TIMESTEP
400
ITEM: NUMBER OF ATOMS
5
ITEM: BOX BOUNDS ff ff ff
-5.00000000    5.00000000     
-5.00000000    5.00000000     
-5.00000000    5.00000000     
ITEM: ATOMS id type q x y z mux muy muz
      1   1    1.0000      -0.369981       0.254355       4.670895       0.279629       0.733644      -0.619333
      2   2   -1.0000      -1.432655       4.805896       0.384409       0.067294       0.672630       0.736913
      3   1    1.0000      -2.483137      -2.823395      -3.840412       0.922316       0.359323      -0.142199
      4   2   -1.0000      -0.484755      -4.881022      -0.449508       0.138631      -0.772196      -0.620076
      5   2   -1.0000       4.886012       1.730485       2.630376       0.594746      -0.792397      -0.135588
ITEM: TIMESTEP
500
ITEM: NUMBER OF ATOMS
5
ITEM: BOX BOUNDS ff ff ff
-5.00000000    5.00000000     
-5.00000000    5.00000000     
-5.00000000    5.00000000     
ITEM: ATOMS id type q x y z mux muy muz
      1   1    1.0000      -0.364610       0.205957       4.711032       0.273435       0.730859      -0.625363
      2   2   -1.0000      -1.457691       4.806774       0.374871       0.077145       0.672698       0.735885
      3   1    1.0000      -2.459558      -2.757973      -3.903988       0.892903       0.425563      -0.147037
      4   2   -1.0000      -0.488680      -4.906001      -0.425238       0.180273      -0.917443      -0.354684
      5   2   -1.0000       4.886022       1.737561       2.639082       0.556695      -0.822573      -0.116039
ITEM: TIMESTEP
600
ITEM: NUMBER OF ATOMS
5
ITEM: BOX BOUNDS ff ff ff
-5.00000000    5.00000000     
-5.00000000    5.00000000     
-5.00000000    5.00000000     
ITEM: ATOMS id type q x y z mux muy muz
      1   1    1.0000      -0.358908       0.157521       4.750950       0.268925       0.726812      -0.631999
      2   2   -1.0000      -1.482976       4.807521       0.365348       0.087761       0.673676       0.733798
      3   1    1.0000      -2.435702      -2.692337      -3.967298       0.863080       0.483525      -0.145936
      4   2   -1.0000      -0.492793      -4.930919      -0.401271       0.206164      -0.977054      -0.053490
      5   2   -1.0000       4.885862       1.744533       2.648031       0.521647      -0.847360      -0.099327
ITEM: TIMESTEP
700
ITEM: NUMBER OF ATOMS
5
ITEM: BOX BOUNDS ff ff ff
-5.00000000    5.00000000     
-5.00000000    5.00000000     
-5.00000000    5.00000000     
ITEM: ATOMS id type q x y z mux muy muz
      1   1    1.0000      -0.352882       0.109039       4.790663       0.265905       0.721678      -0.639120
      2   2   -1.0000      -1.508517       4.808139       0.355832       0.099081       0.675456       0.730713
      3   1    1.0000      -2.411559      -2.626508      -4.030355       0.834033       0.533819      -0.139380
      4   2   -1.0000      -0.497098      -4.955749      -0.377606       0.213243      -0.943222       0.254674
      5   2   -1.0000       4.885539       1.751398       2.657226       0.489747      -0.867679      -0.085331
ITEM: TIMESTEP
800
ITEM: NUMBER OF ATOMS
5
ITEM: BOX BOUNDS ff ff ff
-5.00000000    5.00000000     
-5.00000000    5.00000000     
-5.00000000    5.00000000     
ITEM: ATOMS id type q x y z mux muy muz
      1   1    1.0000      -0.346540       0.060513       4.830186       0.264197       0.715631      -0.646585
      2   2   -1.0000      -1.534316       4.808624       0.346317       0.111053       0.677946       0.726675
      3   1    1.0000      -2.387128      -2.560506      -4.093178       0.806580       0.577118      -0.127924
      4   2   -1.0000      -0.501590      -4.980464      -0.354229       0.200395      -0.817810       0.539471
      5   2   -1.0000       4.885058       1.758152       2.666665       0.461015      -0.884311      -0.073889
ITEM: TIMESTEP
900
ITEM: NUMBER OF ATOMS
5
ITEM: BOX BOUNDS ff ff ff
-5.00000000    5.00000000     
-5.00000000    5.00000000     
-5.00000000    5.00000000     
ITEM: ATOMS id type q x y z mux muy muz
      1   1    1.0000      -0.339889       0.011952       4.869529       0.263652       0.708840      -0.654243
      2   2   -1.0000      -1.560373       4.808972       0.336797       0.123628       0.681063       0.721713
      3   1    1.0000      -2.362413      -2.494349      -4.155794       0.781215       0.614104      -0.112163
      4   2   -1.0000      -0.506262      -4.994941      -0.331119       0.168587      -0.612250       0.772482
      5   2   -1.0000       4.884421       1.764793       2.676347       0.435402      -0.897899      -0.064830
ITEM: TIMESTEP
1000
ITEM: NUMBER OF ATOMS
5
ITEM: BOX BOUNDS ff ff ff
-5.00000000    5.00000000     
-5.00000000    5.00000000     
-5.00000000    5.00000000     
ITEM: ATOMS id type q x y z mux muy muz
      1   1    1.0000      -0.332937      -0.036622       4.908696       0.264144       0.701465      -0.661948
      2   2   -1.0000      -1.586680       4.809177       0.327269       0.136759       0.684733       0.715848
      3   1    1.0000      -2.337430      -2.428064      -4.218221       0.758168       0.645437      -0.092696
      4   2   -1.0000      -0.511102      -4.970136      -0.308252       0.120767      -0.346311       0.930314
      5   2   -1.0000       4.883632       1.771312       2.686268       0.412821      -0.908965      -0.057982
ITEM: TIMESTEP
1100
ITEM: NUMBER OF ATOMS
5
ITEM: BOX BOUNDS ff ff ff
-5.00000000    5.00000000     
-5.00000000    5.00000000     
-5.00000000    5.00000000     
ITEM: ATOMS id type q x y z mux muy muz
      1   1    1.0000      -0.325693      -0.085156       4.947666       0.265570       0.693648      -0.669571
      2   2   -1.0000      -1.613211       4.809232       0.317736       0.150394       0.688882       0.709100
      3   1    1.0000      -2.312209      -2.361706      -4.280439       0.737470       0.671733      -0.070093
      4   2   -1.0000      -0.516094      -4.944976      -0.285618       0.061543      -0.045990       0.997044
      5   2   -1.0000       4.882690       1.777700       2.696415       0.393168      -0.917927      -0.053180
ITEM: TIMESTEP
1200
ITEM: NUMBER OF ATOMS
5
ITEM: BOX BOUNDS ff ff ff
-5.00000000    5.00000000     
-5.00000000    5.00000000     
-5.00000000    5.00000000     
ITEM: ATOMS id type q x y z mux muy muz
      1   1    1.0000      -0.318166      -0.133632       4.986442       0.267848       0.685510      -0.677003
      2   2   -1.0000      -1.639957       4.809130       0.308194       0.164470       0.693438       0.701494
      3   1    1.0000      -2.286767      -2.295282      -4.342471       0.718998       0.693559      -0.044923
      4   2   -1.0000      -0.521225      -4.919474      -0.263186      -0.003310       0.259185       0.965822
      5   2   -1.0000       4.881598       1.783954       2.706781       0.376334      -0.925119      -0.050269
ITEM: TIMESTEP
1300
ITEM: NUMBER OF ATOMS
5
ITEM: BOX BOUNDS ff ff ff
-5.00000000    5.00000000     
-5.00000000    5.00000000     
-5.00000000    5.00000000     
ITEM: ATOMS id type q x y z mux muy muz
      1   1    1.0000      -0.310360      -0.182033       4.974848       0.270908       0.677148      -0.684163
      2   2   -1.0000      -1.666905       4.808863       0.298637       0.178914       0.698324       0.693061
      3   1    1.0000      -2.261127      -2.228792      -4.404339       0.702524       0.711439      -0.017754
      4   2   -1.0000      -0.526481      -4.893653      -0.240924      -0.067443       0.539146       0.839507
      5   2   -1.0000       4.880357       1.790067       2.717359       0.362205      -0.930804      -0.049097
ITEM: TIMESTEP
1400
ITEM: NUMBER OF ATOMS
5
ITEM: BOX BOUNDS ff ff ff
-5.00000000    5.00000000     
-5.00000000    5.00000000     
-5.00000000    5.00000000     
ITEM: ATOMS id type q x y z mux muy muz
      1   1    1.0000      -0.302290      -0.230291       4.935810       0.274697       0.668632      -0.690994
      2   2   -1.0000      -1.694016       4.808424       0.289071       0.193631       0.703474       0.683836
      3   1    1.0000      -2.235333      -2.162297      -4.466001       0.687756       0.725860       0.010859
      4   2   -1.0000      -0.531844      -4.867565      -0.218823      -0.124567       0.766253       0.630348
      5   2   -1.0000       4.878966       1.796030       2.728126       0.350685      -0.935184      -0.049499
ITEM: TIMESTEP
1500
ITEM: NUMBER OF ATOMS
5
ITEM: BOX BOUNDS ff ff ff
-5.00000000    5.00000000     
-5.00000000    5.00000000     
-5.00000000    5.00000000     
ITEM: ATOMS id type q x y z mux muy muz
      1   1    1.0000      -0.293963      -0.278369       4.896452       0.279170       0.660004      -0.697466
      2   2   -1.0000      -1.721262       4.807803       0.279497       0.208510       0.708821       0.673866
      3   1    1.0000      -2.209422      -2.095822      -4.527439       0.674380       0.737279       0.040396
      4   2   -1.0000      -0.537296      -4.841249      -0.196861      -0.169070       0.917992       0.358757
      5   2   -1.0000       4.877425       1.801835       2.739065       0.341676      -0.938417      -0.051304
ITEM: TIMESTEP
1600
ITEM: NUMBER OF ATOMS
5
ITEM: BOX BOUNDS ff ff ff
-5.00000000    5.00000000     
-5.00000000    5.00000000     
-5.00000000    5.00000000     
ITEM: ATOMS id type q x y z mux muy muz
      1   1    1.0000      -0.285385      -0.326261       4.856796       0.284271       0.651262      -0.703596
      2   2   -1.0000      -1.748628       4.806993       0.269908       0.223433       0.714289       0.663226
      3   1    1.0000      -2.183412      -2.029352      -4.588666       0.662083       0.746117       0.070399
      4   2   -1.0000      -0.542826      -4.814732      -0.175009      -0.196555       0.979147       0.051355
      5   2   -1.0000       4.875734       1.807479       2.750164       0.335061      -0.940628      -0.054349
ITEM: TIMESTEP
1700
ITEM: NUMBER OF ATOMS
5
ITEM: BOX BOUNDS ff ff ff
-5.00000000    5.00000000     
-5.00000000    5.00000000     
-5.00000000    5.00000000     
ITEM: ATOMS id type q x y z mux muy muz
      1   1    1.0000      -0.276563      -0.373968       4.816861       0.289933       0.642368      -0.709438
      2   2   -1.0000      -1.776103       4.805990       0.260299       0.238282       0.719792       0.652013
      3   1    1.0000      -2.157322      -1.962873      -4.649685       0.650583       0.752758       0.100485
      4   2   -1.0000      -0.548424      -4.788038      -0.153241      -0.204273       0.943324      -0.261558
      5   2   -1.0000       4.873894       1.812961       2.761410       0.330703      -0.941922      -0.058477
ITEM: TIMESTEP
1800
ITEM: NUMBER OF ATOMS
5
ITEM: BOX BOUNDS ff ff ff
-5.00000000    5.00000000     
-5.00000000    5.00000000     
-5.00000000    5.00000000     
ITEM: ATOMS id type q x y z mux muy muz
      1   1    1.0000      -0.267504      -0.421495       4.776658       0.296069       0.633247      -0.715082
      2   2   -1.0000      -1.803674       4.804792       0.250663       0.252946       0.725241       0.640347
      3   1    1.0000      -2.131166      -1.896370      -4.710490       0.639637       0.757541       0.130369
      4   2   -1.0000      -0.554080      -4.761186      -0.131534      -0.191413       0.813667      -0.548914
      5   2   -1.0000       4.871908       1.818281       2.772794       0.328441      -0.942385      -0.063544
ITEM: TIMESTEP
1900
ITEM: NUMBER OF ATOMS
5
ITEM: BOX BOUNDS ff ff ff
-5.00000000    5.00000000     
-5.00000000    5.00000000     
-5.00000000    5.00000000     
ITEM: ATOMS id type q x y z mux muy muz
      1   1    1.0000      -0.258218      -0.468852       4.736191       0.302577       0.623798      -0.720641
      2   2   -1.0000      -1.831332       4.803402       0.240992       0.267325       0.730550       0.628358
      3   1    1.0000      -2.104960      -1.829835      -4.771069       0.629052       0.760748       0.159864
      4   2   -1.0000      -0.559787      -4.734188      -0.109873      -0.159205       0.602694      -0.781930
      5   2   -1.0000       4.869780       1.823439       2.784305       0.328098      -0.942089      -0.069419
ITEM: TIMESTEP
2000
ITEM: NUMBER OF ATOMS
5
ITEM: BOX BOUNDS ff ff ff
-5.00000000    5.00000000     
-5.00000000    5.00000000     
-5.00000000    5.00000000     
ITEM: ATOMS id type q x y z mux muy muz
      1   1    1.0000      -0.248716      -0.516053       4.695459       0.309338       0.613911      -0.726239
      2   2   -1.0000      -1.859067       4.801824       0.231280       0.281338       0.735638       0.616186
      3   1    1.0000      -2.078712      -1.763261      -4.831402       0.618680       0.762598       0.188887
      4   2   -1.0000      -0.565537      -4.707053      -0.088244      -0.110835       0.331189      -0.937032
      5   2   -1.0000       4.867515       1.828434       2.795937       0.329489      -0.941096      -0.075989
ITEM: TIMESTEP
2100
ITEM: NUMBER OF ATOMS
5
ITEM: BOX BOUNDS ff ff ff
-5.00000000    5.00000000     
-5.00000000    5.00000000     
-5.00000000    5.00000000     
ITEM: ATOMS id type q x y z mux muy muz
      1   1    1.0000      -0.239008      -0.563112       4.654453       0.316221       0.603482      -0.731993
      2   2   -1.0000      -1.886872       4.800064       0.221521       0.294926       0.740437       0.603963
      3   1    1.0000      -2.052431      -1.696647      -4.891465       0.608420       0.763245       0.217444
      4   2   -1.0000      -0.571325      -4.679780      -0.066639      -0.051148       0.026223      -0.998347
      5   2   -1.0000       4.865119       1.833268       2.807682       0.332428      -0.939455      -0.083158
ITEM: TIMESTEP
2200
ITEM: NUMBER OF ATOMS
5
ITEM: BOX BOUNDS ff ff ff
-5.00000000    5.00000000     
-5.00000000    5.00000000     
-5.00000000    5.00000000     
ITEM: ATOMS id type q x y z mux muy muz
      1   1    1.0000      -0.229107      -0.610044       4.613159       0.323087       0.592429      -0.737999
      2   2   -1.0000      -1.914741       4.798129       0.211708       0.308051       0.744895       0.591807
      3   1    1.0000      -2.026122      -1.629995      -4.951233       0.598204       0.762775       0.245612
      4   2   -1.0000      -0.577144      -4.652366      -0.045051       0.013825      -0.281559      -0.959444
      5   2   -1.0000       4.862597       1.837941       2.819536       0.336740      -0.937205      -0.090851
ITEM: TIMESTEP
2300
ITEM: NUMBER OF ATOMS
5
ITEM: BOX BOUNDS ff ff ff
-5.00000000    5.00000000     
-5.00000000    5.00000000     
-5.00000000    5.00000000     
ITEM: ATOMS id type q x y z mux muy muz
      1   1    1.0000      -0.219024      -0.656861       4.571562       0.329799       0.580705      -0.744321
      2   2   -1.0000      -1.942670       4.796030       0.201836       0.320696       0.748976       0.579819
      3   1    1.0000      -1.999786      -1.563312      -4.989310       0.587995       0.761216       0.273520
      4   2   -1.0000      -0.582990      -4.624803      -0.023479       0.077490      -0.561102      -0.824112
      5   2   -1.0000       4.859954       1.842453       2.831496       0.342268      -0.934371      -0.099011
ITEM: TIMESTEP
2400
ITEM: NUMBER OF ATOMS
5
ITEM: BOX BOUNDS ff ff ff
-5.00000000    5.00000000     
-5.00000000    5.00000000     
-5.00000000    5.00000000     
ITEM: ATOMS id type q x y z mux muy muz
      1   1    1.0000      -0.208775      -0.703549       4.529660       0.336236       0.568321      -0.750970
      2   2   -1.0000      -1.970644       4.793771       0.191905       0.332856       0.752664       0.568070
      3   1    1.0000      -1.973437      -1.496637      -4.929807       0.577771       0.758539       0.301330
      4   2   -1.0000      -0.588854      -4.597091      -0.001930       0.133377      -0.784211      -0.605989
      5   2   -1.0000       4.857195       1.846799       2.843555       0.348890      -0.930967      -0.107597
ITEM: TIMESTEP
2500
ITEM: NUMBER OF ATOMS
5
ITEM: BOX BOUNDS ff ff ff
-5.00000000    5.00000000     
-5.00000000    5.00000000     
-5.00000000    5.00000000     
ITEM: ATOMS id type q x y z mux muy muz
      1   1    1.0000      -0.198390      -0.750013       4.487528       0.342297       0.555352      -0.757903
      2   2   -1.0000      -1.998604       4.791361       0.181932       0.344526       0.755971       0.556605
      3   1    1.0000      -1.947127      -1.430117      -4.870154       0.567533       0.754660       0.329233
      4   2   -1.0000      -0.594722      -4.569271       0.019543       0.175813      -0.928472      -0.327152
      5   2   -1.0000       4.854327       1.850968       2.855685       0.356519      -0.926987      -0.116574
ITEM: TIMESTEP
2600
ITEM: NUMBER OF ATOMS
5
ITEM: BOX BOUNDS ff ff ff
-5.00000000    5.00000000     
-5.00000000    5.00000000     
-5.00000000    5.00000000     
ITEM: ATOMS id type q x y z mux muy muz
      1   1    1.0000      -0.187877      -0.796244       4.445162       0.347915       0.541933      -0.765025
      2   2   -1.0000      -2.026545       4.788799       0.171912       0.355703       0.758923       0.545447
      3   1    1.0000      -1.920856      -1.363775      -4.810330       0.557290       0.749460       0.357403
      4   2   -1.0000      -0.600592      -4.541327       0.040929       0.200506      -0.979565      -0.015806
      5   2   -1.0000       4.851353       1.854957       2.867884       0.365101      -0.922414      -0.125914
ITEM: TIMESTEP
2700
ITEM: NUMBER OF ATOMS
5
ITEM: BOX BOUNDS ff ff ff
-5.00000000    5.00000000     
-5.00000000    5.00000000     
-5.00000000    5.00000000     
ITEM: ATOMS id type q x y z mux muy muz
      1   1    1.0000      -0.177240      -0.842226       4.402563       0.353057       0.528253      -0.772204
      2   2   -1.0000      -2.054462       4.786081       0.161844       0.366383       0.761556       0.534599
      3   1    1.0000      -1.894622      -1.297631      -4.750319       0.547049       0.742807       0.385974
      4   2   -1.0000      -0.606462      -4.513246       0.062216       0.204987      -0.932708       0.296710
      5   2   -1.0000       4.848269       1.858759       2.880148       0.374610      -0.917215      -0.135592
ITEM: TIMESTEP
2800
ITEM: NUMBER OF ATOMS
5
ITEM: BOX BOUNDS ff ff ff
-5.00000000    5.00000000     
-5.00000000    5.00000000     
-5.00000000    5.00000000     
ITEM: ATOMS id type q x y z mux muy muz
      1   1    1.0000      -0.166479      -0.887942       4.359737       0.357731       0.514541      -0.779279
      2   2   -1.0000      -2.082353       4.783201       0.151724       0.376558       0.763918       0.524055
      3   1    1.0000      -1.868424      -1.231698      -4.690104       0.536810       0.734575       0.415011
      4   2   -1.0000      -0.612334      -4.485015       0.083394       0.188838      -0.793021       0.579187
      5   2   -1.0000       4.845074       1.862369       2.892475       0.385040      -0.911345      -0.145581
ITEM: TIMESTEP
2900
ITEM: NUMBER OF ATOMS
5
ITEM: BOX BOUNDS ff ff ff
-5.00000000    5.00000000     
-5.00000000    5.00000000     
-5.00000000    5.00000000     
ITEM: ATOMS id type q x y z mux muy muz
      1   1    1.0000      -0.155591      -0.933376       4.316694       0.361988       0.501049      -0.786076
      2   2   -1.0000      -2.110218       4.780151       0.141547       0.386209       0.766062       0.513801
      3   1    1.0000      -1.842259      -1.165982      -4.629677       0.526564       0.724672       0.444501
      4   2   -1.0000      -0.618211      -4.456619       0.104458       0.153698      -0.574837       0.803703
      5   2   -1.0000       4.841762       1.865782       2.904863       0.396404      -0.904752      -0.155845
ITEM: TIMESTEP
3000
ITEM: NUMBER OF ATOMS
5
ITEM: BOX BOUNDS ff ff ff
-5.00000000    5.00000000     
-5.00000000    5.00000000     
-5.00000000    5.00000000     
ITEM: ATOMS id type q x y z mux muy muz
      1   1    1.0000      -0.144569      -0.978513       4.273454       0.365918       0.488027      -0.792423
      2   2   -1.0000      -2.138057       4.776918       0.131307       0.395304       0.768043       0.503829
      3   1    1.0000      -1.816123      -1.100480      -4.569035       0.516289       0.713054       0.474341
      4   2   -1.0000      -0.624098      -4.428051       0.125403       0.103058      -0.300101       0.948324
      5   2   -1.0000       4.838329       1.868993       2.917306       0.408714      -0.897377      -0.166335
ITEM: TIMESTEP
3100
ITEM: NUMBER OF ATOMS
5
ITEM: BOX BOUNDS ff ff ff
-5.00000000    5.00000000     
-5.00000000    5.00000000     
-5.00000000    5.00000000     
ITEM: ATOMS id type q x y z mux muy muz
      1   1    1.0000      -0.133403      -1.023341       4.230040       0.369642       0.475696      -0.798172
      2   2   -1.0000      -2.165869       4.773489       0.120998       0.403800       0.769919       0.494136
      3   1    1.0000      -1.790015      -1.035178      -4.508179       0.505952       0.699752       0.504340
      4   2   -1.0000      -0.629999      -4.399302       0.146230       0.041889       0.003909       0.999115
      5   2   -1.0000       4.834769       1.871996       2.929803       0.421978      -0.889162      -0.176988
ITEM: TIMESTEP
3200
ITEM: NUMBER OF ATOMS
5
ITEM: BOX BOUNDS ff ff ff
-5.00000000    5.00000000     
-5.00000000    5.00000000     
-5.00000000    5.00000000     
ITEM: ATOMS id type q x y z mux muy muz
      1   1    1.0000      -0.122082      -1.067859       4.186479       0.373301       0.464217      -0.803211
      2   2   -1.0000      -2.193653       4.769848       0.110612       0.411639       0.771741       0.484736
      3   1    1.0000      -1.763933      -0.970057      -4.447121       0.495514       0.684882       0.534230
      4   2   -1.0000      -0.635922      -4.370365       0.166944      -0.023858       0.307261       0.951326
      5   2   -1.0000       4.831074       1.874786       2.942346       0.436187      -0.880058      -0.187720
ITEM: TIMESTEP
3300
ITEM: NUMBER OF ATOMS
5
ITEM: BOX BOUNDS ff ff ff
-5.00000000    5.00000000     
-5.00000000    5.00000000     
-5.00000000    5.00000000     
ITEM: ATOMS id type q x y z mux muy muz
      1   1    1.0000      -0.110596      -1.112071       4.142802       0.377036       0.453665      -0.807485
      2   2   -1.0000      -2.221407       4.765978       0.100139       0.418758       0.773557       0.475658
      3   1    1.0000      -1.737881      -0.905087      -4.385876       0.484932       0.668652       0.563689
      4   2   -1.0000      -0.641872      -4.341235       0.187553      -0.087821       0.580201       0.809725
      5   2   -1.0000       4.827239       1.877361       2.954930       0.451302      -0.870030      -0.198430
ITEM: TIMESTEP
3400
ITEM: NUMBER OF ATOMS
5
ITEM: BOX BOUNDS ff ff ff
-5.00000000    5.00000000     
-5.00000000    5.00000000     
-5.00000000    5.00000000     
ITEM: ATOMS id type q x y z mux muy muz
      1   1    1.0000      -0.098937      -1.155993       4.099040       0.380965       0.444002      -0.811005
      2   2   -1.0000      -2.249126       4.761867       0.089571       0.425092       0.775404       0.466952
      3   1    1.0000      -1.711862      -0.840240      -4.324468       0.474165       0.651361       0.592365
      4   2   -1.0000      -0.647851      -4.311902       0.208070      -0.143812       0.795904       0.588094
      5   2   -1.0000       4.823261       1.879717       2.967546       0.467253      -0.859064      -0.209004
ITEM: TIMESTEP
3500
ITEM: NUMBER OF ATOMS
5
ITEM: BOX BOUNDS ff ff ff
-5.00000000    5.00000000     
-5.00000000    5.00000000     
-5.00000000    5.00000000     
ITEM: ATOMS id type q x y z mux muy muz
      1   1    1.0000      -0.087103      -1.199652       4.055222       0.385167       0.435069      -0.813856
      2   2   -1.0000      -2.276803       4.757499       0.078897       0.430579       0.777311       0.458683
      3   1    1.0000      -1.685887      -0.775482      -4.262921       0.463178       0.633378       0.619918
      4   2   -1.0000      -0.653859      -4.282357       0.228514      -0.186397       0.932954       0.307983
      5   2   -1.0000       4.819136       1.881853       2.980185       0.483936      -0.847174      -0.219322
ITEM: TIMESTEP
3600
ITEM: NUMBER OF ATOMS
5
ITEM: BOX BOUNDS ff ff ff
-5.00000000    5.00000000     
-5.00000000    5.00000000     
-5.00000000    5.00000000     
ITEM: ATOMS id type q x y z mux muy muz
      1   1    1.0000      -0.075099      -1.243085       4.011370       0.389660       0.426588      -0.816203
      2   2   -1.0000      -2.304428       4.752865       0.068108       0.435167       0.779291       0.450927
      3   1    1.0000      -1.659966      -0.710788      -4.201266       0.451942       0.615114       0.646052
      4   2   -1.0000      -0.659888      -4.252586       0.248905      -0.211398       0.977395      -0.003214
      5   2   -1.0000       4.814864       1.883770       2.992836       0.501213      -0.834400      -0.229263
ITEM: TIMESTEP
3700
ITEM: NUMBER OF ATOMS
5
ITEM: BOX BOUNDS ff ff ff
-5.00000000    5.00000000     
-5.00000000    5.00000000     
-5.00000000    5.00000000     
ITEM: ATOMS id type q x y z mux muy muz
      1   1    1.0000      -0.062940      -1.286339       3.967499       0.394383       0.418175      -0.818286
      2   2   -1.0000      -2.331984       4.747956       0.057196       0.438822       0.781348       0.443769
      3   1    1.0000      -1.634117      -0.646138      -4.139533       0.440436       0.596981       0.670544
      4   2   -1.0000      -0.665923      -4.222566       0.269270      -0.216321       0.924199      -0.314740
      5   2   -1.0000       4.810448       1.885467       3.005485       0.518929      -0.820809      -0.238718
ITEM: TIMESTEP
3800
ITEM: NUMBER OF ATOMS
5
ITEM: BOX BOUNDS ff ff ff
-5.00000000    5.00000000     
-5.00000000    5.00000000     
-5.00000000    5.00000000     
ITEM: ATOMS id type q x y z mux muy muz
      1   1    1.0000      -0.050651      -1.329465       3.923614       0.399194       0.409379      -0.820398
      2   2   -1.0000      -2.359456       4.742770       0.046153       0.441530       0.783473       0.437289
      3   1    1.0000      -1.608358      -0.581524      -4.077750       0.428642       0.579352       0.693266
      4   2   -1.0000      -0.671943      -4.192273       0.289637      -0.200635       0.777989      -0.595381
      5   2   -1.0000       4.805892       1.886946       3.018121       0.536915      -0.806485      -0.247599
ITEM: TIMESTEP
3900
ITEM: NUMBER OF ATOMS
5
ITEM: BOX BOUNDS ff ff ff
-5.00000000    5.00000000     
-5.00000000    5.00000000     
-5.00000000    5.00000000     
ITEM: ATOMS id type q x y z mux muy muz