ITEM: TIMESTEP
0
ITEM: NUMBER OF ATOMS
5
ITEM: BOX BOUNDS ff ff ff
-5.00000000    5.00000000     
-5.00000000    5.00000000     
-5.00000000    5.00000000     
ITEM: ATOMS id type q x y z mux muy muz
      1   1    1.0000      -1.578369       4.615340      -0.550929       0.671990      -0.268762       0.690070
      2   2   -1.0000      -0.109437      -1.483075       4.095129       0.842406       0.457614      -0.284502
      3   1    1.0000       0.689541       2.621310       3.118370      -0.411675       0.462626      -0.785176
      4   2   -1.0000      -1.581540      -0.662648       3.484583      -0.984241      -0.039023      -0.172471
      5   2   -1.0000      -1.367786       2.939120       4.409564      -0.048653       0.982791      -0.178196
ITEM: TIMESTEP
100
ITEM: NUMBER OF ATOMS
5
ITEM: BOX BOUNDS ff ff ff
-5.00000000    5.00000000     
-5.00000000    5.00000000     
-5.00000000    5.00000000     
ITEM: ATOMS id type q x y z mux muy muz
      1   1    1.0000      -1.548120       4.598473      -0.496322       0.654182      -0.256059       0.711674
      2   2   -1.0000      -0.099523      -1.444513       4.061709       0.863788       0.503588       0.016395
      3   1    1.0000       0.687844       2.576566       3.149888      -0.424461       0.455347      -0.782619
      4   2   -1.0000      -1.586324      -0.617935       3.468440      -0.985276      -0.055349      -0.161766
      5   2   -1.0000      -1.401468       2.917455       4.373003      -0.054443       0.983436      -0.172887
ITEM: TIMESTEP
200
ITEM: NUMBER OF ATOMS
5
ITEM: BOX BOUNDS ff ff ff
-5.00000000    5.00000000     
-5.00000000    5.00000000     
-5.00000000    5.00000000     
ITEM: ATOMS id type q x y z mux muy muz
      1   1    1.0000      -1.518616       4.581607      -0.442432       0.634208      -0.245570       0.733128
      2   2   -1.0000      -0.085373      -1.414678       4.032111       0.775518       0.550198       0.309605
      3   1    1.0000       0.685441       2.530039       3.183604      -0.460071       0.436339      -0.773268
      4   2   -1.0000      -1.594857      -0.565837       3.447956      -0.985928      -0.102832      -0.131803
      5   2   -1.0000      -1.434186       2.898915       4.335479      -0.071180       0.985474      -0.154192
ITEM: TIMESTEP
300
ITEM: NUMBER OF ATOMS
5
ITEM: BOX BOUNDS ff ff ff
-5.00000000    5.00000000     
-5.00000000    5.00000000     
-5.00000000    5.00000000     
ITEM: ATOMS id type q x y z mux muy muz
      1   1    1.0000      -1.490310       4.564987      -0.390093       0.613554      -0.238075       0.752908
      2   2   -1.0000      -0.067289      -1.393612       4.005343       0.589937       0.587766       0.553629
      3   1    1.0000       0.682135       2.482361       3.219050      -0.514239       0.405350      -0.755811
      4   2   -1.0000      -1.606872      -0.507499       3.424847      -0.980249      -0.176141      -0.089920
      5   2   -1.0000      -1.465256       2.883810       4.297570      -0.098095       0.987416      -0.124040
ITEM: TIMESTEP
400
ITEM: NUMBER OF ATOMS
5
ITEM: BOX BOUNDS ff ff ff
-5.00000000    5.00000000     
-5.00000000    5.00000000     
-5.00000000    5.00000000     
ITEM: ATOMS id type q x y z mux muy muz
      1   1    1.0000      -1.463454       4.548757      -0.339797       0.593283      -0.233764       0.770305
      2   2   -1.0000      -0.046198      -1.380161       3.980227       0.336154       0.607134       0.719992
      3   1    1.0000       0.677643       2.433930       3.255926      -0.581320       0.362359      -0.728535
      4   2   -1.0000      -1.621443      -0.444735       3.400734      -0.963068      -0.265749      -0.043319
      5   2   -1.0000      -1.494138       2.872256       4.259627      -0.134040       0.987349      -0.084707
ITEM: TIMESTEP
500
ITEM: NUMBER OF ATOMS
5
ITEM: BOX BOUNDS ff ff ff
-5.00000000    5.00000000     
-5.00000000    5.00000000     
-5.00000000    5.00000000     
ITEM: ATOMS id type q x y z mux muy muz
      1   1    1.0000      -1.438068       4.532929      -0.291613       0.573813      -0.232434       0.785311
      2   2   -1.0000      -0.023135      -1.372504       3.955738       0.049574       0.602325       0.796710
      3   1    1.0000       0.671572       2.384812       3.294191      -0.656034       0.307188      -0.689388
      4   2   -1.0000      -1.637486      -0.379393       3.376701      -0.932322      -0.361619       0.002738
      5   2   -1.0000      -1.520474       2.864203       4.221699      -0.178271       0.983251      -0.037900
ITEM: TIMESTEP
600
ITEM: NUMBER OF ATOMS
5
ITEM: BOX BOUNDS ff ff ff
-5.00000000    5.00000000     
-5.00000000    5.00000000     
-5.00000000    5.00000000     
ITEM: ATOMS id type q x y z mux muy muz
      1   1    1.0000      -1.414024       4.517428      -0.245335       0.555087      -0.233770       0.798267
      2   2   -1.0000       0.001100      -1.368745       3.931217      -0.236103       0.571607       0.785825
      3   1    1.0000       0.663410       2.334860       3.333974      -0.733619       0.239489      -0.635962
      4   2   -1.0000      -1.654103      -0.313007       3.353232      -0.889071      -0.455522       0.045318
      5   2   -1.0000      -1.543975       2.859510       4.183631      -0.230617       0.972923       0.015384
ITEM: TIMESTEP
700
ITEM: NUMBER OF ATOMS
5
ITEM: BOX BOUNDS ff ff ff
-5.00000000    5.00000000     
-5.00000000    5.00000000     
-5.00000000    5.00000000     
ITEM: ATOMS id type q x y z mux muy muz
      1   1    1.0000      -1.391153       4.502150      -0.200672       0.536813      -0.237502       0.809583
      2   2   -1.0000       0.026013      -1.367292       3.906387      -0.493458       0.517196       0.699290
      3   1    1.0000       0.652531       2.283905       3.375432      -0.809084       0.159166      -0.565729
      4   2   -1.0000      -1.670680      -0.246711       3.330360      -0.836332      -0.541836       0.083440
      5   2   -1.0000      -1.564302       2.857995       4.145210      -0.291191       0.953761       0.074486
ITEM: TIMESTEP
800
ITEM: NUMBER OF ATOMS
5
ITEM: BOX BOUNDS ff ff ff
-5.00000000    5.00000000     
-5.00000000    5.00000000     
-5.00000000    5.00000000     
ITEM: ATOMS id type q x y z mux muy muz
      1   1    1.0000      -1.369305       4.486995      -0.157357       0.518628      -0.243456       0.819606
      2   2   -1.0000       0.051341      -1.366985       3.881273      -0.703456       0.444136       0.554881
      3   1    1.0000       0.638219       2.231897       3.418624      -0.876495       0.067125      -0.476708
      4   2   -1.0000      -1.686822      -0.181288       3.307892      -0.777819      -0.617416       0.117453
      5   2   -1.0000      -1.581024       2.859428       4.106285      -0.359871       0.922659       0.138537
ITEM: TIMESTEP
900
ITEM: NUMBER OF ATOMS
5
ITEM: BOX BOUNDS ff ff ff
-5.00000000    5.00000000     
-5.00000000    5.00000000     
-5.00000000    5.00000000     
ITEM: ATOMS id type q x y z mux muy muz
      1   1    1.0000      -1.348370       4.471883      -0.115181       0.500176      -0.251541       0.828584
      2   2   -1.0000       0.076947      -1.367075       3.856074      -0.855872       0.358830       0.372457
      3   1    1.0000       0.619727       2.178978       3.463428      -0.928991      -0.033930      -0.368543
      4   2   -1.0000      -1.702266      -0.117240       3.285573      -0.717017      -0.681068       0.148435
      5   2   -1.0000      -1.593629       2.863501       4.066823      -0.435777       0.876175       0.205953
ITEM: TIMESTEP
1000
ITEM: NUMBER OF ATOMS
5
ITEM: BOX BOUNDS ff ff ff
-5.00000000    5.00000000     
-5.00000000    5.00000000     
-5.00000000    5.00000000     
ITEM: ATOMS id type q x y z mux muy muz
      1   1    1.0000      -1.328264       4.456747      -0.073981       0.481114      -0.261728       0.836676
      2   2   -1.0000       0.102739      -1.367131       3.831049      -0.948300       0.267564       0.170693
      3   1    1.0000       0.596348       2.125486       3.509511      -0.959859      -0.139114      -0.243554
      4   2   -1.0000      -1.716805      -0.054853       3.263205      -0.656629      -0.732980       0.177702
      5   2   -1.0000      -1.601609       2.869798       4.026933      -0.516899       0.810966       0.274132
ITEM: TIMESTEP
1100
ITEM: NUMBER OF ATOMS
5
ITEM: BOX BOUNDS ff ff ff
-5.00000000    5.00000000     
-5.00000000    5.00000000     
-5.00000000    5.00000000     
ITEM: ATOMS id type q x y z mux muy muz
      1   1    1.0000      -1.308919       4.441519      -0.033603       0.461083      -0.274049       0.843978
      2   2   -1.0000       0.128633      -1.366937       3.806441      -0.983872       0.175359      -0.035288
      3   1    1.0000       0.567512       2.071908       3.556333      -0.964395      -0.241789      -0.107143
      4   2   -1.0000      -1.730261       0.005752       3.240691      -0.598337      -0.774189       0.206457
      5   2   -1.0000      -1.604556       2.877805       3.986855      -0.600043       0.724363       0.339480
ITEM: TIMESTEP
1200
ITEM: NUMBER OF ATOMS
5
ITEM: BOX BOUNDS ff ff ff
-5.00000000    5.00000000     
-5.00000000    5.00000000     
-5.00000000    5.00000000     
ITEM: ATOMS id type q x y z mux muy muz
      1   1    1.0000      -1.290269       4.426125       0.006124       0.439663      -0.288591       0.850536
      2   2   -1.0000       0.154548      -1.366395       3.782430      -0.968283       0.085461      -0.234787
      3   1    1.0000       0.532872       2.018806       3.603190      -0.941712      -0.334809       0.032874
      4   2   -1.0000      -1.742483       0.064572       3.218047      -0.542818      -0.806132       0.235583
      5   2   -1.0000      -1.602260       2.886939       3.946926      -0.681055       0.614826       0.397685
ITEM: TIMESTEP
1300
ITEM: NUMBER OF ATOMS
5
ITEM: BOX BOUNDS ff ff ff
-5.00000000    5.00000000     
-5.00000000    5.00000000     
-5.00000000    5.00000000     
ITEM: ATOMS id type q x y z mux muy muz
      1   1    1.0000      -1.272241       4.410479       0.045407       0.416347      -0.305494       0.856346
      2   2   -1.0000       0.180412      -1.365456       3.759127      -0.907165      -0.000448      -0.420774
      3   1    1.0000       0.492371       1.966713       3.649280      -0.895571      -0.412060       0.167804
      4   2   -1.0000      -1.753359       0.121700       3.195381      -0.489955      -0.830318       0.265549
      5   2   -1.0000      -1.594775       2.896610       3.907522      -0.755157       0.482206       0.444089
ITEM: TIMESTEP
1400
ITEM: NUMBER OF ATOMS
5
ITEM: BOX BOUNDS ff ff ff
-5.00000000    5.00000000     
-5.00000000    5.00000000     
-5.00000000    5.00000000     
ITEM: ATOMS id type q x y z mux muy muz
      1   1    1.0000      -1.254757       4.394479       0.084493       0.390560      -0.324913       0.861333
      2   2   -1.0000       0.206172      -1.364080       3.736572      -0.804710      -0.081526      -0.588044
      3   1    1.0000       0.446255       1.916049       3.693793      -0.833919      -0.469668       0.289814
      4   2   -1.0000      -1.762830       0.177305       3.172866      -0.439127      -0.848140       0.296355
      5   2   -1.0000      -1.582432       2.906293       3.868993      -0.817183       0.327933       0.473996
ITEM: TIMESTEP
1500
ITEM: NUMBER OF ATOMS
5
ITEM: BOX BOUNDS ff ff ff
-5.00000000    5.00000000     
-5.00000000    5.00000000     
-5.00000000    5.00000000     
ITEM: ATOMS id type q x y z mux muy muz
      1   1    1.0000      -1.237731       4.378014       0.123664       0.361731      -0.346922       0.865330
      2   2   -1.0000       0.231795      -1.362215       3.714760      -0.663869      -0.156894      -0.731206
      3   1    1.0000       0.395038       1.867051       3.735989      -0.767389      -0.506467       0.393199
      4   2   -1.0000      -1.770889       0.231621       3.150710      -0.389525      -0.860837       0.327460
      5   2   -1.0000      -1.565804       2.915576       3.831594      -0.861749       0.155372       0.482959
ITEM: TIMESTEP
1600
ITEM: NUMBER OF ATOMS
5
ITEM: BOX BOUNDS ff ff ff
-5.00000000    5.00000000     
-5.00000000    5.00000000     
-5.00000000    5.00000000     
ITEM: ATOMS id type q x y z mux muy muz
      1   1    1.0000      -1.221080       4.360970       0.163223       0.329430      -0.371393       0.868068
      2   2   -1.0000       0.257266      -1.359788       3.693658      -0.487922      -0.224922      -0.843411
      3   1    1.0000       0.339422       1.819748       3.775257      -0.707243      -0.523739       0.474874
      4   2   -1.0000      -1.777566       0.284937       3.129146      -0.340441      -0.869571       0.357697
      5   2   -1.0000      -1.545633       2.924179       3.795433      -0.883621      -0.029630       0.467264
ITEM: TIMESTEP
1700
ITEM: NUMBER OF ATOMS
5
ITEM: BOX BOUNDS ff ff ff
-5.00000000    5.00000000     
-5.00000000    5.00000000     
-5.00000000    5.00000000     
ITEM: ATOMS id type q x y z mux muy muz
      1   1    1.0000      -1.204729       4.343243       0.203466       0.293505      -0.397889       0.869217
      2   2   -1.0000       0.282573      -1.356709       3.673230      -0.282597      -0.283003      -0.916542
      3   1    1.0000       0.280208       1.773982       3.811147      -0.663150      -0.524384       0.534091
      4   2   -1.0000      -1.782902       0.337583       3.108418      -0.291520      -0.875561       0.385239
      5   2   -1.0000      -1.522740       2.931948       3.760457      -0.878565      -0.218465       0.424731
ITEM: TIMESTEP
1800
ITEM: NUMBER OF ATOMS
5
ITEM: BOX BOUNDS ff ff ff
-5.00000000    5.00000000     
-5.00000000    5.00000000     
-5.00000000    5.00000000     
ITEM: ATOMS id type q x y z mux muy muz
      1   1    1.0000      -1.188621       4.324749       0.244662       0.254160      -0.425658       0.868457
      2   2   -1.0000       0.307693      -1.352877       3.653450      -0.057482      -0.327952      -0.942944
      3   1    1.0000       0.218204       1.729462       3.843362      -0.641376      -0.511832       0.571546
      4   2   -1.0000      -1.786922       0.389906       3.088791      -0.242913      -0.880207       0.407712
      5   2   -1.0000      -1.497945       2.938806       3.726452      -0.844534      -0.400430       0.355552
ITEM: TIMESTEP
1900
ITEM: NUMBER OF ATOMS
5
ITEM: BOX BOUNDS ff ff ff
-5.00000000    5.00000000     
-5.00000000    5.00000000     
-5.00000000    5.00000000     
ITEM: ATOMS id type q x y z mux muy muz
      1   1    1.0000      -1.172720       4.305437       0.287027       0.211912      -0.453743       0.865570
      2   2   -1.0000       0.332584      -1.348190       3.634320       0.174287      -0.356836      -0.917765
      3   1    1.0000       0.154167       1.685841       3.871745      -0.643962      -0.489116       0.588284
      4   2   -1.0000      -1.789602       0.442246       3.070548      -0.195329      -0.885098       0.422432
      5   2   -1.0000      -1.472020       2.944713       3.693077      -0.782568      -0.564462       0.262622
ITEM: TIMESTEP
2000
ITEM: NUMBER OF ATOMS
5
ITEM: BOX BOUNDS ff ff ff
-5.00000000    5.00000000     
-5.00000000    5.00000000     
-5.00000000    5.00000000     
ITEM: ATOMS id type q x y z mux muy muz
      1   1    1.0000      -1.157015       4.285292       0.330707       0.167444      -0.481163       0.860491
      2   2   -1.0000       0.357176      -1.342562       3.615865       0.397890      -0.367742      -0.840505
      3   1    1.0000       0.088751       1.642785       3.896239      -0.669113      -0.458451       0.584902
      4   2   -1.0000      -1.790852       0.494901       3.053996      -0.150005      -0.891893       0.426645
      5   2   -1.0000      -1.445651       2.949630       3.659910      -0.696793      -0.701189       0.151041
ITEM: TIMESTEP
2100
ITEM: NUMBER OF ATOMS
5
ITEM: BOX BOUNDS ff ff ff
-5.00000000    5.00000000     
-5.00000000    5.00000000     
-5.00000000    5.00000000     
ITEM: ATOMS id type q x y z mux muy muz
      1   1    1.0000      -1.141521       4.264341       0.375764       0.121474      -0.507046       0.853316
      2   2   -1.0000       0.381370      -1.335932       3.598133       0.599027      -0.360129      -0.715174
      3   1    1.0000       0.022487       1.600032       3.916858      -0.712354      -0.421310       0.561293
      4   2   -1.0000      -1.790501       0.548105       3.039460      -0.108686      -0.902085       0.417648
      5   2   -1.0000      -1.419426       2.953501       3.626501      -0.593578      -0.804320       0.027112
ITEM: TIMESTEP
2200
ITEM: NUMBER OF ATOMS
5
ITEM: BOX BOUNDS ff ff ff
-5.00000000    5.00000000     
-5.00000000    5.00000000     
-5.00000000    5.00000000     
ITEM: ATOMS id type q x y z mux muy muz
      1   1    1.0000      -1.126277       4.242649       0.422180       0.074690      -0.530684       0.844273
      2   2   -1.0000       0.405041      -1.328286       3.581180       0.765480      -0.334787      -0.549508
      3   1    1.0000      -0.044254       1.557433       3.933648      -0.767754      -0.378702       0.516854
      4   2   -1.0000      -1.788278       0.602000       3.027281      -0.073641      -0.916680       0.392779
      5   2   -1.0000      -1.393823       2.956250       3.592428      -0.480391      -0.871030      -0.102626
ITEM: TIMESTEP
2300
ITEM: NUMBER OF ATOMS
5
ITEM: BOX BOUNDS ff ff ff
-5.00000000    5.00000000     
-5.00000000    5.00000000     
-5.00000000    5.00000000     
ITEM: ATOMS id type q x y z mux muy muz
      1   1    1.0000      -1.111342       4.220322       0.469850       0.027762      -0.551516       0.833702
      2   2   -1.0000       0.428041      -1.319661       3.565059       0.887949      -0.293641      -0.354008
      3   1    1.0000      -0.111290       1.514991       3.946639      -0.828787      -0.331369       0.450895
      4   2   -1.0000      -1.783794       0.656617       3.017813      -0.047711      -0.935757       0.349402
      5   2   -1.0000      -1.369206       2.957777       3.557356      -0.364832      -0.901703      -0.232011
ITEM: TIMESTEP
2400
ITEM: NUMBER OF ATOMS
5
ITEM: BOX BOUNDS ff ff ff
-5.00000000    5.00000000     
-5.00000000    5.00000000     
-5.00000000    5.00000000     
ITEM: ATOMS id type q x y z mux muy muz
      1   1    1.0000      -1.096791       4.197501       0.518590      -0.018610      -0.569111       0.822050
      2   2   -1.0000       0.450206      -1.310152       3.549802       0.960572      -0.239571      -0.141093
      3   1    1.0000      -0.178666       1.472881       3.955789      -0.888751      -0.279799       0.363089
      4   2   -1.0000      -1.776515       0.711854       3.011439      -0.034336      -0.957915       0.284991
      5   2   -1.0000      -1.345826       2.957962       3.521098      -0.253983      -0.899490      -0.355543
ITEM: TIMESTEP
2500
ITEM: NUMBER OF ATOMS
5
ITEM: BOX BOUNDS ff ff ff
-5.00000000    5.00000000     
-5.00000000    5.00000000     
-5.00000000    5.00000000     
ITEM: ATOMS id type q x y z mux muy muz
      1   1    1.0000      -1.082711       4.174364       0.568137      -0.063660      -0.583149       0.809867
      2   2   -1.0000       0.471367      -1.299908       3.535412       0.981425      -0.176239       0.075794
      3   1    1.0000      -0.246700       1.431467       3.960913      -0.940877      -0.224163       0.253971
      4   2   -1.0000      -1.765715       0.767459       3.008593      -0.037448      -0.979598       0.197449
      5   2   -1.0000      -1.323831       2.956665       3.483663      -0.153972      -0.869926      -0.468531
ITEM: TIMESTEP
2600
ITEM: NUMBER OF ATOMS
5
ITEM: BOX BOUNDS ff ff ff
-5.00000000    5.00000000     
-5.00000000    5.00000000     
-5.00000000    5.00000000     
ITEM: ATOMS id type q x y z mux muy muz
      1   1    1.0000      -1.069205       4.151135       0.618135      -0.106549      -0.593428       0.797803
      2   2   -1.0000       0.491349      -1.289132       3.521867       0.952928      -0.107831       0.283374
      3   1    1.0000      -0.316017       1.391311       3.961601      -0.978385      -0.164359       0.125496
      4   2   -1.0000      -1.750408       0.822987       3.009819      -0.061155      -0.994437       0.085764
      5   2   -1.0000      -1.303310       2.953745       3.445295      -0.069626      -0.820587      -0.567264
ITEM: TIMESTEP
2700
ITEM: NUMBER OF ATOMS
5
ITEM: BOX BOUNDS ff ff ff
-5.00000000    5.00000000     
-5.00000000    5.00000000     
-5.00000000    5.00000000     
ITEM: ATOMS id type q x y z mux muy muz
      1   1    1.0000      -1.056393       4.128111       0.668080      -0.146400      -0.599879       0.786583
      2   2   -1.0000       0.509965      -1.278073       3.509133       0.881805      -0.038647       0.470028
      3   1    1.0000      -0.387574       1.353170       3.957115      -0.994785      -0.100335      -0.018339
      4   2   -1.0000      -1.729254       0.877736       3.015876      -0.109077      -0.992829      -0.048922
      5   2   -1.0000      -1.284336       2.949103       3.406513      -0.004123      -0.760588      -0.649222
ITEM: TIMESTEP
2800
ITEM: NUMBER OF ATOMS
5
ITEM: BOX BOUNDS ff ff ff
-5.00000000    5.00000000     
-5.00000000    5.00000000     
-5.00000000    5.00000000     
ITEM: ATOMS id type q x y z mux muy muz
      1   1    1.0000      -1.044438       4.105726       0.717192      -0.182346      -0.602564       0.776960
      2   2   -1.0000       0.526983      -1.267050       3.497210       0.778311       0.027422       0.627279
      3   1    1.0000      -0.462657       1.317975       3.946253      -0.984725      -0.032785      -0.171000
      4   2   -1.0000      -1.700443       0.930643       3.027899      -0.183223      -0.962129      -0.201836
      5   2   -1.0000      -1.267037       2.942753       3.368163       0.041323      -0.699747      -0.713194
ITEM: TIMESTEP
2900
ITEM: NUMBER OF ATOMS
5
ITEM: BOX BOUNDS ff ff ff
-5.00000000    5.00000000     
-5.00000000    5.00000000     
-5.00000000    5.00000000     
ITEM: ATOMS id type q x y z mux muy muz
      1   1    1.0000      -1.033584       4.084653       0.764188      -0.213612      -0.601666       0.769654
      2   2   -1.0000       0.542072      -1.256486       3.486194       0.654679       0.087410       0.750836
      3   1    1.0000      -0.542822       1.286756       3.927173      -0.945561       0.035815      -0.323468
      4   2   -1.0000      -1.661580       0.980178       3.047649      -0.282392      -0.888013      -0.362889
      5   2   -1.0000      -1.251677       2.934947       3.331514       0.067697      -0.647364      -0.759168
ITEM: TIMESTEP
3000
ITEM: NUMBER OF ATOMS
5
ITEM: BOX BOUNDS ff ff ff
-5.00000000    5.00000000     
-5.00000000    5.00000000     
-5.00000000    5.00000000     
ITEM: ATOMS id type q x y z mux muy muz
      1   1    1.0000      -1.024206       4.065934       0.806955      -0.239610      -0.597460       0.765264
      2   2   -1.0000       0.554737      -1.246972       3.476364       0.522978       0.139678       0.840823
      3   1    1.0000      -0.629776       1.260353       3.897140      -0.879430       0.099856      -0.465437
      4   2   -1.0000      -1.609618       1.024398       3.077873      -0.400360      -0.757662      -0.515422
      5   2   -1.0000      -1.238729       2.926334       3.298386       0.078297      -0.610736      -0.787954
ITEM: TIMESTEP
3100
ITEM: NUMBER OF ATOMS
5
ITEM: BOX BOUNDS ff ff ff
-5.00000000    5.00000000     
-5.00000000    5.00000000     
-5.00000000    5.00000000     
ITEM: ATOMS id type q x y z mux muy muz
      1   1    1.0000      -1.016816       4.050999       0.842393      -0.260069      -0.590243       0.764184
      2   2   -1.0000       0.564331      -1.239281       3.468240       0.392764       0.184107       0.901022
      3   1    1.0000      -0.725645       1.238433       3.851899      -0.795172       0.148345      -0.587958
      4   2   -1.0000      -1.540598       1.061784       3.123060      -0.524629      -0.565331      -0.636526
      5   2   -1.0000      -1.228864       2.918112       3.271125       0.078649      -0.593779      -0.800775
ITEM: TIMESTEP
3200
ITEM: NUMBER OF ATOMS
5
ITEM: BOX BOUNDS ff ff ff
-5.00000000    5.00000000     
-5.00000000    5.00000000     
-5.00000000    5.00000000     
ITEM: ATOMS id type q x y z mux muy muz
      1   1    1.0000      -1.011893       4.041240       0.867155      -0.275163      -0.580201       0.766585
      2   2   -1.0000       0.570324      -1.234161       3.462449       0.268920       0.222045       0.937218
      3   1    1.0000      -0.794359       1.225294       3.821429      -0.709267       0.159162      -0.686737
      4   2   -1.0000      -1.488991       1.085768       3.153738      -0.636846      -0.321867      -0.700592
      5   2   -1.0000      -1.222673       2.911905       3.251946       0.076013      -0.596463      -0.799033
ITEM: TIMESTEP
3300
ITEM: NUMBER OF ATOMS
5
ITEM: BOX BOUNDS ff ff ff
-5.00000000    5.00000000     
-5.00000000    5.00000000     
-5.00000000    5.00000000     
ITEM: ATOMS id type q x y z mux muy muz
      1   1    1.0000      -1.000990       4.020431       0.923607      -0.285706      -0.567055       0.772541
      2   2   -1.0000       0.582859      -1.223044       3.448937       0.148952       0.256028       0.955125
      3   1    1.0000      -0.784707       1.225121       3.915082      -0.634348       0.112578      -0.764806
      4   2   -1.0000      -1.535038       1.110041       3.061781      -0.712866      -0.069711      -0.697827
      5   2   -1.0000      -1.209715       2.897498       3.207311       0.075817      -0.616001      -0.784089
ITEM: TIMESTEP
3400
ITEM: NUMBER OF ATOMS
5
ITEM: BOX BOUNDS ff ff ff
-5.00000000    5.00000000     
-5.00000000    5.00000000     
-5.00000000    5.00000000     
ITEM: ATOMS id type q x y z mux muy muz
      1   1    1.0000      -0.992069       4.003973       0.970692      -0.292742      -0.549289       0.782677
      2   2   -1.0000       0.592842      -1.214124       3.437641       0.021695       0.288948       0.957099
      3   1    1.0000      -0.802523       1.216367       3.961009      -0.557403       0.025795      -0.829841
      4   2   -1.0000      -1.546453       1.138855       3.018050      -0.742173       0.158152      -0.651281
      5   2   -1.0000      -1.199389       2.884976       3.169326       0.079169      -0.652036      -0.754044
ITEM: TIMESTEP
3500
ITEM: NUMBER OF ATOMS
5
ITEM: BOX BOUNDS ff ff ff
-5.00000000    5.00000000     
-5.00000000    5.00000000     
-5.00000000    5.00000000     
ITEM: ATOMS id type q x y z mux muy muz
      1   1    1.0000      -0.979993       3.982485       1.035770      -0.296181      -0.524894       0.797975
      2   2   -1.0000       0.606103      -1.202282       3.422204      -0.120522       0.321074       0.939354
      3   1    1.0000      -0.864834       1.193939       3.971407      -0.468551      -0.086664      -0.879175
      4   2   -1.0000      -1.523289       1.188865       3.011712      -0.732199       0.342479      -0.588722
      5   2   -1.0000      -1.185578       2.867040       3.115624       0.088861      -0.706475      -0.702137
ITEM: TIMESTEP
3600
ITEM: NUMBER OF ATOMS
5
ITEM: BOX BOUNDS ff ff ff
-5.00000000    5.00000000     
-5.00000000    5.00000000     
-5.00000000    5.00000000     
ITEM: ATOMS id type q x y z mux muy muz
      1   1    1.0000      -0.969553       3.964521       1.093629      -0.295073      -0.491480       0.819377
      2   2   -1.0000       0.617407      -1.192201       3.408833      -0.280301       0.350205       0.893749
      3   1    1.0000      -0.945127       1.168997       3.935805      -0.364229      -0.205725      -0.908303
      4   2   -1.0000      -1.476848       1.237535       3.051782      -0.693846       0.468570      -0.546827
      5   2   -1.0000      -1.173469       2.851193       3.066668       0.109913      -0.780340      -0.615621
ITEM: TIMESTEP
3700
ITEM: NUMBER OF ATOMS
5
ITEM: BOX BOUNDS ff ff ff
-5.00000000    5.00000000     
-5.00000000    5.00000000     
-5.00000000    5.00000000     
ITEM: ATOMS id type q x y z mux muy muz
      1   1    1.0000      -0.961643       3.951252       1.140063      -0.288083      -0.447127       0.846809
      2   2   -1.0000       0.625878      -1.184614       3.398642      -0.452113       0.371577       0.810879
      3   1    1.0000      -0.981688       1.140736       3.943530      -0.257294      -0.293835      -0.920576
      4   2   -1.0000      -1.466537       1.283095       3.048432      -0.635541       0.523037      -0.567909
      5   2   -1.0000      -1.163601       2.839578       3.026050       0.146455      -0.866492      -0.477224
ITEM: TIMESTEP
3800
ITEM: NUMBER OF ATOMS
5
ITEM: BOX BOUNDS ff ff ff
-5.00000000    5.00000000     
-5.00000000    5.00000000     
-5.00000000    5.00000000     
ITEM: ATOMS id type q x y z mux muy muz
      1   1    1.0000      -0.953935       3.937982       1.190395      -0.274800      -0.394603       0.876797
      2   2   -1.0000       0.634213      -1.177087       3.388478      -0.613264       0.378865       0.693086
      3   1    1.0000      -0.991069       1.106846       3.993654      -0.180613      -0.309998      -0.933424
      4   2   -1.0000      -1.484434       1.333185       3.003328      -0.567244       0.511124      -0.645744
      5   2   -1.0000      -1.152367       2.829121       2.980862       0.193332      -0.940117      -0.280720
ITEM: TIMESTEP
3900
ITEM: NUMBER OF ATOMS
5
ITEM: BOX BOUNDS ff ff ff
-5.00000000    5.00000000     
-5.00000000    5.00000000     
-5.00000000    5.00000000     
ITEM: ATOMS id type q x y z mux muy muz