ITEM: TIMESTEP
0
ITEM: NUMBER OF ATOMS
5
ITEM: BOX BOUNDS ff ff ff
-5.00000000    5.00000000     
-5.00000000    5.00000000     
-5.00000000    5.00000000     
ITEM: ATOMS id type q x y z mux muy muz
      1   1    1.0000       4.528795      -2.379524       4.088539       0.067125       0.992913       0.098070
      2   2   -1.0000       4.501345      -2.308426       2.542256       0.498738       0.761068       0.414772
      3   1    1.0000      -2.612187       2.376002       2.974376       0.262993       0.905831       0.332122
      4   2   -1.0000      -1.414082      -3.322701      -4.080851      -0.841914      -0.527360      -0.114331
      5   2   -1.0000       0.753369       4.781246       3.229318       0.562527       0.645947      -0.516059
ITEM: TIMESTEP
100
ITEM: NUMBER OF ATOMS
5
ITEM: BOX BOUNDS ff ff ff
-5.00000000    5.00000000     
-5.00000000    5.00000000     
-5.00000000    5.00000000     
ITEM: ATOMS id type q x y z mux muy muz
      1   1    1.0000       4.587657      -2.427161       4.116296       0.030719       0.990964       0.130562
      2   2   -1.0000       4.468070      -2.303359       2.564990       0.434033       0.807700       0.399044
      3   1    1.0000      -2.605391       2.365214       2.992030       0.092871       0.985122       0.144603
      4   2   -1.0000      -1.401185      -3.295549      -4.130509      -0.851625      -0.516300      -0.090380
      5   2   -1.0000       0.708090       4.807452       3.210833       0.554381       0.662094      -0.504274
ITEM: TIMESTEP
200
ITEM: NUMBER OF ATOMS
5
ITEM: BOX BOUNDS ff ff ff
-5.00000000    5.00000000     
-5.00000000    5.00000000     
-5.00000000    5.00000000     
ITEM: ATOMS id type q x y z mux muy muz
      1   1    1.0000       4.645282      -2.477382       4.145778      -0.023476       0.989182       0.144806
      2   2   -1.0000       4.435896      -2.295433       2.585724       0.377315       0.855868       0.353727
      3   1    1.0000      -2.597632       2.354899       3.009618      -0.078650       0.995374      -0.055180
      4   2   -1.0000      -1.388441      -3.268537      -4.179901      -0.860365      -0.505348      -0.066296
      5   2   -1.0000       0.662134       4.833049       3.192420       0.548519       0.678120      -0.489162
ITEM: TIMESTEP
300
ITEM: NUMBER OF ATOMS
5
ITEM: BOX BOUNDS ff ff ff
-5.00000000    5.00000000     
-5.00000000    5.00000000     
-5.00000000    5.00000000     
ITEM: ATOMS id type q x y z mux muy muz
      1   1    1.0000       4.701654      -2.530387       4.176275      -0.097368       0.986040       0.135070
      2   2   -1.0000       4.404710      -2.284239       2.604918       0.325361       0.904448       0.275886
      3   1    1.0000      -2.588982       2.345065       3.027077      -0.235884       0.939352      -0.248950
      4   2   -1.0000      -1.375910      -3.241796      -4.228779      -0.867995      -0.494746      -0.042555
      5   2   -1.0000       0.615767       4.857953       3.174148       0.545191       0.693555      -0.470901
ITEM: TIMESTEP
400
ITEM: NUMBER OF ATOMS
5
ITEM: BOX BOUNDS ff ff ff
-5.00000000    5.00000000     
-5.00000000    5.00000000     
-5.00000000    5.00000000     
ITEM: ATOMS id type q x y z mux muy muz
      1   1    1.0000       4.756648      -2.586458       4.206564      -0.192337       0.976881       0.093325
      2   2   -1.0000       4.374524      -2.269314       2.623578       0.274303       0.947858       0.162242
      3   1    1.0000      -2.579529       2.335715       3.044350      -0.365604       0.830631      -0.419983
      4   2   -1.0000      -1.363648      -3.215442      -4.276926      -0.874395      -0.484809      -0.019816
      5   2   -1.0000       0.569246       4.882095       3.156074       0.544475       0.707846      -0.450000
ITEM: TIMESTEP
500
ITEM: NUMBER OF ATOMS
5
ITEM: BOX BOUNDS ff ff ff
-5.00000000    5.00000000     
-5.00000000    5.00000000     
-5.00000000    5.00000000     
ITEM: ATOMS id type q x y z mux muy muz
      1   1    1.0000       4.810000      -2.645805       4.234848      -0.305985       0.951960       0.012100
      2   2   -1.0000       4.345520      -2.250325       2.643347       0.220240       0.975360       0.012921
      3   1    1.0000      -2.569369       2.326844       3.061402      -0.459986       0.691727      -0.556711
      4   2   -1.0000      -1.351687      -3.189554      -4.324189      -0.879482      -0.475931       0.001060
      5   2   -1.0000       0.522777       4.905436       3.138231       0.546220       0.720369      -0.427450
ITEM: TIMESTEP
600
ITEM: NUMBER OF ATOMS
5
ITEM: BOX BOUNDS ff ff ff
-5.00000000    5.00000000     
-5.00000000    5.00000000     
-5.00000000    5.00000000     
ITEM: ATOMS id type q x y z mux muy muz
      1   1    1.0000       4.861253      -2.708314       4.258788      -0.428032       0.897069      -0.109800
      2   2   -1.0000       4.318131      -2.227355       2.666524       0.160265       0.973328      -0.164156
      3   1    1.0000      -2.558576       2.318436       3.078234      -0.518868       0.548091      -0.656027
      4   2   -1.0000      -1.340033      -3.164152      -4.370522      -0.883270      -0.468470       0.019222
      5   2   -1.0000       0.476465       4.927982       3.120616       0.550010       0.730594      -0.404626
ITEM: TIMESTEP
700
ITEM: NUMBER OF ATOMS
5
ITEM: BOX BOUNDS ff ff ff
-5.00000000    5.00000000     
-5.00000000    5.00000000     
-5.00000000    5.00000000     
ITEM: ATOMS id type q x y z mux muy muz
      1   1    1.0000       4.909707      -2.773271       4.275737      -0.540138       0.799702      -0.262159
      2   2   -1.0000       4.293100      -2.201193       2.695840       0.093426       0.931110      -0.352569
      3   1    1.0000      -2.547193       2.310466       3.094884      -0.548832       0.419075      -0.723297
      4   2   -1.0000      -1.328656      -3.139193      -4.416002      -0.885918      -0.462576       0.034226
      5   2   -1.0000       0.430282       4.949786       3.103181       0.555277       0.738347      -0.382768
ITEM: TIMESTEP
800
ITEM: NUMBER OF ATOMS
5
ITEM: BOX BOUNDS ff ff ff
-5.00000000    5.00000000     
-5.00000000    5.00000000     
-5.00000000    5.00000000     
ITEM: ATOMS id type q x y z mux muy muz
      1   1    1.0000       4.954411      -2.839137       4.283222      -0.622535       0.657089      -0.425070
      2   2   -1.0000       4.271462      -2.173524       2.733935       0.020692       0.846188      -0.532483
      3   1    1.0000      -2.535228       2.302909       3.111424      -0.558831       0.312698      -0.768068
      4   2   -1.0000      -1.317507      -3.114584      -4.460789      -0.887690      -0.458114       0.046245
      5   2   -1.0000       0.384102       4.970932       3.085847       0.561534       0.743869      -0.362408
ITEM: TIMESTEP
900
ITEM: NUMBER OF ATOMS
5
ITEM: BOX BOUNDS ff ff ff
-5.00000000    5.00000000     
-5.00000000    5.00000000     
-5.00000000    5.00000000     
ITEM: ATOMS id type q x y z mux muy muz
      1   1    1.0000       4.994253      -2.903536       4.279529      -0.662057       0.478213      -0.577055
      2   2   -1.0000       4.254406      -2.146858       2.782674      -0.056069       0.724405      -0.687090
      3   1    1.0000      -2.522674       2.295749       3.127915      -0.556077       0.227860      -0.799286
      4   2   -1.0000      -1.306540      -3.090248      -4.505024      -0.888858      -0.454763       0.055882
      5   2   -1.0000       0.337795       4.991489       3.068546       0.568553       0.747614      -0.343250
ITEM: TIMESTEP
1000
ITEM: NUMBER OF ATOMS
5
ITEM: BOX BOUNDS ff ff ff
-5.00000000    5.00000000     
-5.00000000    5.00000000     
-5.00000000    5.00000000     
ITEM: ATOMS id type q x y z mux muy muz
      1   1    1.0000       4.967690      -2.963467       4.264083      -0.654667       0.279025      -0.702535
      2   2   -1.0000       4.242980      -2.124231       2.842661      -0.135088       0.576557      -0.805812
      3   1    1.0000      -2.509546       2.289001       3.144376      -0.544662       0.159509      -0.823347
      4   2   -1.0000      -1.295739      -3.066170      -4.548737      -0.889641      -0.452172       0.063866
      5   2   -1.0000       0.291341       4.988419       3.051256       0.576405       0.750012      -0.324406
ITEM: TIMESTEP
1100
ITEM: NUMBER OF ATOMS
5
ITEM: BOX BOUNDS ff ff ff
-5.00000000    5.00000000     
-5.00000000    5.00000000     
-5.00000000    5.00000000     
ITEM: ATOMS id type q x y z mux muy muz
      1   1    1.0000       4.925393      -3.014127       4.237664      -0.601700       0.077301      -0.794973
      2   2   -1.0000       4.237773      -2.109487       2.911963      -0.214459       0.415144      -0.884117
      3   1    1.0000      -2.496200       2.282858       3.160389      -0.525881       0.102183      -0.844398
      4   2   -1.0000      -1.285376      -3.042976      -4.590791      -0.890193      -0.450039       0.070864
      5   2   -1.0000       0.245949       4.968775       3.034415       0.585440       0.751322      -0.304590
ITEM: TIMESTEP
1200
ITEM: NUMBER OF ATOMS
5
ITEM: BOX BOUNDS ff ff ff
-5.00000000    5.00000000     
-5.00000000    5.00000000     
-5.00000000    5.00000000     
ITEM: ATOMS id type q x y z mux muy muz
      1   1    1.0000       4.879583      -3.052103       4.202204      -0.506606      -0.110470      -0.855071
      2   2   -1.0000       4.238377      -2.105692       2.988227      -0.293859       0.253198      -0.921704
      3   1    1.0000      -2.482789       2.277395       3.175803      -0.498759       0.051082      -0.865234
      4   2   -1.0000      -1.275545      -3.020900      -4.630776      -0.890614      -0.448113       0.077470
      5   2   -1.0000       0.202075       4.949696       3.018182       0.596294       0.751580      -0.282065
ITEM: TIMESTEP
1300
ITEM: NUMBER OF ATOMS
5
ITEM: BOX BOUNDS ff ff ff
-5.00000000    5.00000000     
-5.00000000    5.00000000     
-5.00000000    5.00000000     
ITEM: ATOMS id type q x y z mux muy muz
      1   1    1.0000       4.831352      -3.075127       4.160662      -0.371588      -0.268630      -0.888685
      2   2   -1.0000       4.243831      -2.115020       3.068374      -0.375812       0.104588      -0.920775
      3   1    1.0000      -2.469377       2.272646       3.190576      -0.460185       0.002210      -0.887820
      4   2   -1.0000      -1.266270      -3.000007      -4.668573      -0.890971      -0.446178       0.084237
      5   2   -1.0000       0.159863       4.931229       3.002601       0.609870       0.750539      -0.254459
ITEM: TIMESTEP
1400
ITEM: NUMBER OF ATOMS
5
ITEM: BOX BOUNDS ff ff ff
-5.00000000    5.00000000     
-5.00000000    5.00000000     
-5.00000000    5.00000000     
ITEM: ATOMS id type q x y z mux muy muz
      1   1    1.0000       4.781868      -3.081926       4.116660      -0.195911      -0.376399      -0.905507
      2   2   -1.0000       4.252938      -2.138770       3.148806      -0.465696      -0.012628      -0.884855
      3   1    1.0000      -2.455982       2.268627       3.204722      -0.405291      -0.047053      -0.912976
      4   2   -1.0000      -1.257538      -2.980289      -4.704210      -0.891303      -0.444056       0.091614
      5   2   -1.0000       0.119304       4.913344       2.987662       0.627092       0.747546      -0.218931
ITEM: TIMESTEP
1500
ITEM: NUMBER OF ATOMS
5
ITEM: BOX BOUNDS ff ff ff
-5.00000000    5.00000000     
-5.00000000    5.00000000     
-5.00000000    5.00000000     
ITEM: ATOMS id type q x y z mux muy muz
      1   1    1.0000       4.731929      -3.071709       4.074005       0.017340      -0.397290      -0.917529
      2   2   -1.0000       4.264784      -2.177818       3.225819      -0.568506      -0.071250      -0.819588
      3   1    1.0000      -2.442596       2.265356       3.218276      -0.331009      -0.095653      -0.938767
      4   2   -1.0000      -1.249323      -2.961691      -4.737787      -0.891615      -0.441705       0.099598
      5   2   -1.0000       0.080312       4.895968       2.973326       0.647728       0.741686      -0.174212
ITEM: TIMESTEP
1600
ITEM: NUMBER OF ATOMS
5
ITEM: BOX BOUNDS ff ff ff
-5.00000000    5.00000000     
-5.00000000    5.00000000     
-5.00000000    5.00000000     
ITEM: ATOMS id type q x y z mux muy muz
      1   1    1.0000       4.681352      -3.042510       4.036094       0.236547      -0.280731      -0.930181
      2   2   -1.0000       4.279756      -2.233976       3.295831      -0.677657      -0.040877      -0.734241
      3   1    1.0000      -2.429325       2.262884       3.231161      -0.245681      -0.136031      -0.959759
      4   2   -1.0000      -1.241664      -2.944314      -4.769127      -0.891873      -0.439419       0.107116
      5   2   -1.0000       0.043125       4.879156       2.959679       0.668433       0.733074      -0.125699
ITEM: TIMESTEP
1700
ITEM: NUMBER OF ATOMS
5
ITEM: BOX BOUNDS ff ff ff
-5.00000000    5.00000000     
-5.00000000    5.00000000     
-5.00000000    5.00000000     
ITEM: ATOMS id type q x y z mux muy muz
      1   1    1.0000       4.631656      -2.994816       4.010487       0.385341      -0.007922      -0.922740
      2   2   -1.0000       4.298035      -2.305464       3.349750      -0.766259       0.085859      -0.636769
      3   1    1.0000      -2.416864       2.261349       3.242739      -0.169699      -0.159741      -0.972463
      4   2   -1.0000      -1.234924      -2.928988      -4.796734      -0.892044      -0.437704       0.112573
      5   2   -1.0000       0.009582       4.863689       2.947397       0.684325       0.724220      -0.084886
ITEM: TIMESTEP
1800
ITEM: NUMBER OF ATOMS
5
ITEM: BOX BOUNDS ff ff ff
-5.00000000    5.00000000     
-5.00000000    5.00000000     
-5.00000000    5.00000000     
ITEM: ATOMS id type q x y z mux muy muz
      1   1    1.0000       4.608331      -2.997342       4.077948       0.389881       0.339529      -0.855986
      2   2   -1.0000       4.286161      -2.329601       3.313994      -0.795647       0.272897      -0.540807
      3   1    1.0000      -2.402045       2.260439       3.255943      -0.115768      -0.167008      -0.979135
      4   2   -1.0000      -1.227393      -2.911817      -4.827614      -0.892131      -0.436756       0.115529
      5   2   -1.0000      -0.028834       4.845556       2.933369       0.693826       0.717795      -0.058108
ITEM: TIMESTEP
1900
ITEM: NUMBER OF ATOMS
5
ITEM: BOX BOUNDS ff ff ff
-5.00000000    5.00000000     
-5.00000000    5.00000000     
-5.00000000    5.00000000     
ITEM: ATOMS id type q x y z mux muy muz
      1   1    1.0000       4.593951      -3.004842       4.151707       0.284692       0.608080      -0.741073
      2   2   -1.0000       4.272488      -2.343351       3.265494      -0.758294       0.440287      -0.480767
      3   1    1.0000      -2.389492       2.260472       3.266653      -0.077162      -0.164045      -0.983430
      4   2   -1.0000      -1.221409      -2.898130      -4.852185      -0.892157      -0.436335       0.116910
      5   2   -1.0000      -0.060175       4.830345       2.921971       0.699245       0.713699      -0.041105
ITEM: TIMESTEP
2000
ITEM: NUMBER OF ATOMS
5
ITEM: BOX BOUNDS ff ff ff
-5.00000000    5.00000000     
-5.00000000    5.00000000     
-5.00000000    5.00000000     
ITEM: ATOMS id type q x y z mux muy muz
      1   1    1.0000       4.554864      -2.977361       4.201273       0.116128       0.783022      -0.611057
      2   2   -1.0000       4.272439      -2.400479       3.251158      -0.668740       0.576354      -0.469683
      3   1    1.0000      -2.370966       2.261605       3.281831      -0.039696      -0.153411      -0.987365
      4   2   -1.0000      -1.213089      -2.879024      -4.886416      -0.892135      -0.436193       0.117604
      5   2   -1.0000      -0.104891       4.808025       2.905792       0.703172       0.710513      -0.026818
ITEM: TIMESTEP
2100
ITEM: NUMBER OF ATOMS
5
ITEM: BOX BOUNDS ff ff ff
-5.00000000    5.00000000     
-5.00000000    5.00000000     
-5.00000000    5.00000000     
ITEM: ATOMS id type q x y z mux muy muz
      1   1    1.0000       4.503954      -2.932216       4.199849      -0.094812       0.855675      -0.508754
      2   2   -1.0000       4.282810      -2.476335       3.289078      -0.523884       0.665226      -0.531995
      3   1    1.0000      -2.350875       2.263797       3.297744       0.004044      -0.133700      -0.991014
      4   2   -1.0000      -1.204495      -2.859219      -4.921839      -0.892056      -0.436282       0.117870
      5   2   -1.0000      -0.152095       4.783867       2.888807       0.706407       0.707700      -0.012263
ITEM: TIMESTEP
2200
ITEM: NUMBER OF ATOMS
5
ITEM: BOX BOUNDS ff ff ff
-5.00000000    5.00000000     
-5.00000000    5.00000000     
-5.00000000    5.00000000     
ITEM: ATOMS id type q x y z mux muy muz
      1   1    1.0000       4.472411      -2.928334       4.218820      -0.309607       0.802758      -0.509630
      2   2   -1.0000       4.277865      -2.507861       3.302956      -0.317581       0.655375      -0.685292
      3   1    1.0000      -2.331904       2.266830       3.312233       0.055092      -0.104050      -0.993045
      4   2   -1.0000      -1.196780      -2.841378      -4.953690      -0.891918      -0.436600       0.117736
      5   2   -1.0000      -0.195459       4.761045       2.873321       0.708862       0.705342       0.002816
ITEM: TIMESTEP
2300
ITEM: NUMBER OF ATOMS
5
ITEM: BOX BOUNDS ff ff ff
-5.00000000    5.00000000     
-5.00000000    5.00000000     
-5.00000000    5.00000000     
ITEM: ATOMS id type q x y z mux muy muz
      1   1    1.0000       4.457480      -2.974301       4.280752      -0.445932       0.653166      -0.611980
      2   2   -1.0000       4.250293      -2.494098       3.279286      -0.109137       0.536411      -0.836871
      3   1    1.0000      -2.308731       2.271701       3.329280       0.102055      -0.071273      -0.992222
      4   2   -1.0000      -1.187813      -2.820580      -4.990754      -0.891766      -0.437034       0.117279
      5   2   -1.0000      -0.247036       4.733103       2.855076       0.710010       0.704030       0.015094
ITEM: TIMESTEP
2400
ITEM: NUMBER OF ATOMS
5
ITEM: BOX BOUNDS ff ff ff
-5.00000000    5.00000000     
-5.00000000    5.00000000     
-5.00000000    5.00000000     
ITEM: ATOMS id type q x y z mux muy muz
      1   1    1.0000       4.434500      -3.013096       4.291782      -0.495053       0.469791      -0.730903
      2   2   -1.0000       4.223175      -2.493261       3.313344       0.057212       0.380696      -0.922929
      3   1    1.0000      -2.280247       2.278949       3.349517       0.144887      -0.036387      -0.988779
      4   2   -1.0000      -1.177261      -2.796055      -4.965578      -0.891625      -0.437505       0.116592
      5   2   -1.0000      -0.308984       4.698651       2.833393       0.710068       0.703698       0.024775
ITEM: TIMESTEP
2500
ITEM: NUMBER OF ATOMS
5
ITEM: BOX BOUNDS ff ff ff
-5.00000000    5.00000000     
-5.00000000    5.00000000     
-5.00000000    5.00000000     
ITEM: ATOMS id type q x y z mux muy muz
      1   1    1.0000       4.403620      -3.023394       4.252856      -0.473363       0.282748      -0.834255
      2   2   -1.0000       4.205781      -2.519536       3.395704       0.176851       0.237795      -0.955080
      3   1    1.0000      -2.251645       2.287477       3.369109       0.191861       0.006987      -0.981397
      4   2   -1.0000      -1.167105      -2.772422      -4.923465      -0.891490      -0.438044       0.115596
      5   2   -1.0000      -0.369815       4.663909       2.812381       0.709130       0.704267       0.033815
ITEM: TIMESTEP
2600
ITEM: NUMBER OF ATOMS
5
ITEM: BOX BOUNDS ff ff ff
-5.00000000    5.00000000     
-5.00000000    5.00000000     
-5.00000000    5.00000000     
ITEM: ATOMS id type q x y z mux muy muz
      1   1    1.0000       4.387006      -3.054147       4.283444      -0.383783       0.117177      -0.915959
      2   2   -1.0000       4.179613      -2.521190       3.403587       0.243109       0.155421      -0.957467
      3   1    1.0000      -2.225082       2.296726       3.386502       0.257375       0.073649      -0.963501
      4   2   -1.0000      -1.158112      -2.751483      -4.886113      -0.891340      -0.438779       0.113955
      5   2   -1.0000      -0.424921       4.631433       2.793705       0.706635       0.706164       0.044709
ITEM: TIMESTEP
2700
ITEM: NUMBER OF ATOMS
5
ITEM: BOX BOUNDS ff ff ff
-5.00000000    5.00000000     
-5.00000000    5.00000000     
-5.00000000    5.00000000     
ITEM: ATOMS id type q x y z mux muy muz
      1   1    1.0000       4.371315      -3.078952       4.345902      -0.211678      -0.009655      -0.977292
      2   2   -1.0000       4.156805      -2.525538       3.375724       0.241750       0.181509      -0.953211
      3   1    1.0000      -2.199827       2.306999       3.402085       0.365083       0.192967      -0.910757
      4   2   -1.0000      -1.150025      -2.732649      -4.852475      -0.891135      -0.439975       0.110909
      5   2   -1.0000      -0.475838       4.600268       2.776946       0.700793       0.710751       0.061005
ITEM: TIMESTEP
2800
ITEM: NUMBER OF ATOMS
5
ITEM: BOX BOUNDS ff ff ff
-5.00000000    5.00000000     
-5.00000000    5.00000000     
-5.00000000    5.00000000     
ITEM: ATOMS id type q x y z mux muy muz
      1   1    1.0000       4.332669      -3.064167       4.382666      -0.027226      -0.038691      -0.998880
      2   2   -1.0000       4.149023      -2.575463       3.380650       0.160770       0.309073      -0.937351
      3   1    1.0000      -2.167624       2.322007       3.420601       0.478253       0.331229      -0.813364
      4   2   -1.0000      -1.140278      -2.709950      -4.811889      -0.890931      -0.441309       0.107183
      5   2   -1.0000      -0.538957       4.560078       2.756991       0.692308       0.717450       0.077294
ITEM: TIMESTEP
2900
ITEM: NUMBER OF ATOMS
5
ITEM: BOX BOUNDS ff ff ff
-5.00000000    5.00000000     
-5.00000000    5.00000000     
-5.00000000    5.00000000     
ITEM: ATOMS id type q x y z mux muy muz
      1   1    1.0000       4.280966      -3.017873       4.377292       0.103878       0.035415      -0.993959
      2   2   -1.0000       4.159903      -2.652641       3.422655       0.016663       0.467289      -0.883948
      3   1    1.0000      -2.137642       2.337843       3.436359       0.566017       0.453598      -0.688385
      4   2   -1.0000      -1.131707      -2.690003      -4.776188      -0.890767      -0.442505       0.103550
      5   2   -1.0000      -0.596102       4.522109       2.739952       0.682544       0.725438       0.088728
ITEM: TIMESTEP
3000
ITEM: NUMBER OF ATOMS
5
ITEM: BOX BOUNDS ff ff ff
-5.00000000    5.00000000     
-5.00000000    5.00000000     
-5.00000000    5.00000000     
ITEM: ATOMS id type q x y z mux muy muz
      1   1    1.0000       4.234312      -2.988551       4.410004       0.158327       0.171700      -0.972343
      2   2   -1.0000       4.174936      -2.705878       3.418295      -0.153907       0.577269      -0.801918
      3   1    1.0000      -2.112705       2.352966       3.447752       0.623764       0.551475      -0.553889
      4   2   -1.0000      -1.125067      -2.674560      -4.748520      -0.890645      -0.443520       0.100205
      5   2   -1.0000      -0.642066       4.489849       2.727557       0.671931       0.734689       0.093488
ITEM: TIMESTEP
3100
ITEM: NUMBER OF ATOMS
5
ITEM: BOX BOUNDS ff ff ff
-5.00000000    5.00000000     
-5.00000000    5.00000000     
-5.00000000    5.00000000     
ITEM: ATOMS id type q x y z mux muy muz
      1   1    1.0000       4.189357      -2.977501       4.468022       0.163060       0.311892      -0.936021
      2   2   -1.0000       4.189948      -2.739570       3.387106      -0.311182       0.600780      -0.736362
      3   1    1.0000      -2.087096       2.370741       3.457294       0.658767       0.634993      -0.403498
      4   2   -1.0000      -1.118774      -2.659939      -4.722302      -0.890542      -0.444494       0.096749
      5   2   -1.0000      -0.687580       4.455853       2.717057       0.659105       0.746540       0.090873
ITEM: TIMESTEP
3200
ITEM: NUMBER OF ATOMS
5
ITEM: BOX BOUNDS ff ff ff
-5.00000000    5.00000000     
-5.00000000    5.00000000     
-5.00000000    5.00000000     
ITEM: ATOMS id type q x y z mux muy muz
      1   1    1.0000       4.139834      -2.967203       4.480294       0.152317       0.427407      -0.891136
      2   2   -1.0000       4.203261      -2.777252       3.407253      -0.434547       0.531578      -0.727045
      3   1    1.0000      -2.053747       2.396496       3.466962       0.669754       0.710925      -0.214513
      4   2   -1.0000      -1.111161      -2.642263      -4.690579      -0.890432      -0.445608       0.092546
      5   2   -1.0000      -0.744998       4.410492       2.706226       0.641171       0.763447       0.077775
ITEM: TIMESTEP
3300
ITEM: NUMBER OF ATOMS
5
ITEM: BOX BOUNDS ff ff ff
-5.00000000    5.00000000     
-5.00000000    5.00000000     
-5.00000000    5.00000000     
ITEM: ATOMS id type q x y z mux muy muz
      1   1    1.0000       4.102580      -2.968424       4.459525       0.157707       0.480709      -0.862582
      2   2   -1.0000       4.204197      -2.803501       3.460518      -0.472231       0.361938      -0.803741
      3   1    1.0000      -2.018011       2.426548       3.474384       0.645096       0.764102       0.000459
      4   2   -1.0000      -1.103519      -2.624538      -4.658743      -0.890322      -0.446810       0.087674
      5   2   -1.0000      -0.804879       4.360786       2.697638       0.617525       0.784916       0.050685
ITEM: TIMESTEP
3400
ITEM: NUMBER OF ATOMS
5
ITEM: BOX BOUNDS ff ff ff
-5.00000000    5.00000000     
-5.00000000    5.00000000     
-5.00000000    5.00000000     
ITEM: ATOMS id type q x y z mux muy muz
      1   1    1.0000       4.073512      -2.997614       4.493885       0.199473       0.445058      -0.873003
      2   2   -1.0000       4.194265      -2.803814       3.461026      -0.369406       0.134925      -0.919421
      3   1    1.0000      -1.977153       2.463508       3.479297       0.593762       0.783970       0.181211
      4   2   -1.0000      -1.095304      -2.605513      -4.624543      -0.890256      -0.447803       0.083170
      5   2   -1.0000      -0.871665       4.302736       2.691480       0.592563       0.805423       0.012742
ITEM: TIMESTEP
3500
ITEM: NUMBER OF ATOMS
5
ITEM: BOX BOUNDS ff ff ff
-5.00000000    5.00000000     
-5.00000000    5.00000000     
-5.00000000    5.00000000     
ITEM: ATOMS id type q x y z mux muy muz
      1   1    1.0000       4.058974      -3.030140       4.523740       0.251480       0.358359      -0.899076
      2   2   -1.0000       4.173918      -2.797670       3.462330      -0.174664      -0.055939      -0.983038
      3   1    1.0000      -1.938221       2.501179       3.480107       0.540061       0.786734       0.298972
      4   2   -1.0000      -1.087944      -2.588513      -4.593949      -0.890260      -0.448442       0.079607
      5   2   -1.0000      -0.933788       4.246219       2.689566       0.569515       0.821377      -0.031505
ITEM: TIMESTEP
3600
ITEM: NUMBER OF ATOMS
5
ITEM: BOX BOUNDS ff ff ff
-5.00000000    5.00000000     
-5.00000000    5.00000000     
-5.00000000    5.00000000     
ITEM: ATOMS id type q x y z mux muy muz
      1   1    1.0000       4.052659      -3.050781       4.510176       0.285087       0.257924      -0.923147
      2   2   -1.0000       4.144410      -2.804104       3.507860       0.054107      -0.170662      -0.983843
      3   1    1.0000      -1.895537       2.545225       3.476178       0.489199       0.788546       0.372665
      4   2   -1.0000      -1.080374      -2.571081      -4.562541      -0.890344      -0.448819       0.076483
      5   2   -1.0000      -1.000278       4.182841       2.692375       0.544986       0.833849      -0.087667
ITEM: TIMESTEP
3700
ITEM: NUMBER OF ATOMS
5
ITEM: BOX BOUNDS ff ff ff
-5.00000000    5.00000000     
-5.00000000    5.00000000     
-5.00000000    5.00000000     
ITEM: ATOMS id type q x y z mux muy muz
      1   1    1.0000       4.039714      -3.063142       4.522200       0.271068       0.169702      -0.947483
      2   2   -1.0000       4.125490      -2.815807       3.524246       0.282562      -0.177889      -0.942611
      3   1    1.0000      -1.854788       2.590089       3.467059       0.437858       0.798639       0.412865
      4   2   -1.0000      -1.073625      -2.555603      -4.534618      -0.890531      -0.448987       0.073244
      5   2   -1.0000      -1.062194       4.120801       2.700510       0.512657       0.842056      -0.167704
ITEM: TIMESTEP
3800
ITEM: NUMBER OF ATOMS
5
ITEM: BOX BOUNDS ff ff ff
-5.00000000    5.00000000     
-5.00000000    5.00000000     
-5.00000000    5.00000000     
ITEM: ATOMS id type q x y z mux muy muz
      1   1    1.0000       4.012590      -3.067602       4.565270       0.179586       0.114241      -0.977086
      2   2   -1.0000       4.122620      -2.833976       3.507898       0.464306      -0.059379      -0.883682
      3   1    1.0000      -1.813097       2.639276       3.451127       0.385824       0.825110       0.412716
      4   2   -1.0000      -1.067257      -2.541061      -4.508356      -0.890846      -0.448935       0.069648
      5   2   -1.0000      -1.123799       4.055466       2.715527       0.465396       0.839234      -0.281235
ITEM: TIMESTEP
3900
ITEM: NUMBER OF ATOMS
5
ITEM: BOX BOUNDS ff ff ff
-5.00000000    5.00000000     
-5.00000000    5.00000000     
-5.00000000    5.00000000     
ITEM: ATOMS id type q x y z mux muy muz