ITEM: TIMESTEP
0
ITEM: NUMBER OF ATOMS
5
ITEM: BOX BOUNDS ff ff ff
-5.00000000    5.00000000     
-5.00000000    5.00000000     
-5.00000000    5.00000000     
ITEM: ATOMS id type q x y z mux muy muz
      1   1    1.0000       2.132757       2.700518       1.350296       0.618559       0.378795       0.688403
      2   2   -1.0000      -2.627780       3.740827       2.320835      -0.471231       0.631412       0.615841
      3   1    1.0000       2.419074       4.965634       3.025448       0.045310       0.153972       0.987036
      4   2   -1.0000       3.291251       4.513468      -3.488417      -0.335860       0.431111       0.837461
      5   2   -1.0000      -0.023337       0.805698      -1.707092      -0.976455       0.041050      -0.211780
ITEM: TIMESTEP
100
ITEM: NUMBER OF ATOMS
5
ITEM: BOX BOUNDS ff ff ff
-5.00000000    5.00000000     
-5.00000000    5.00000000     
-5.00000000    5.00000000     
ITEM: ATOMS id type q x y z mux muy muz
      1   1    1.0000       2.155153       2.712762       1.328123       0.623211       0.367736       0.690202
      2   2   -1.0000      -2.599891       3.777736       2.284827      -0.487274       0.633288       0.601258
      3   1    1.0000       2.455883       4.972386       3.044000       0.067967       0.195006       0.978444
      4   2   -1.0000       3.265100       4.454919      -3.464053      -0.356361       0.390799       0.848695
      5   2   -1.0000      -0.084278       0.808342      -1.691826      -0.984677       0.170887      -0.034772
ITEM: TIMESTEP
200
ITEM: NUMBER OF ATOMS
5
ITEM: BOX BOUNDS ff ff ff
-5.00000000    5.00000000     
-5.00000000    5.00000000     
-5.00000000    5.00000000     
ITEM: ATOMS id type q x y z mux muy muz
      1   1    1.0000       2.176976       2.724525       1.304518       0.630004       0.356859       0.689744
      2   2   -1.0000      -2.571577       3.814968       2.249302      -0.507928       0.633817       0.583340
      3   1    1.0000       2.492448       4.979258       3.063031       0.082967       0.240741       0.967037
      4   2   -1.0000       3.239201       4.396576      -3.439625      -0.380297       0.346256       0.857602
      5   2   -1.0000      -0.145081       0.810817      -1.676155      -0.937894       0.306948       0.161673
ITEM: TIMESTEP
300
ITEM: NUMBER OF ATOMS
5
ITEM: BOX BOUNDS ff ff ff
-5.00000000    5.00000000     
-5.00000000    5.00000000     
-5.00000000    5.00000000     
ITEM: ATOMS id type q x y z mux muy muz
      1   1    1.0000       2.198215       2.735856       1.279572       0.638431       0.346545       0.687250
      2   2   -1.0000      -2.542824       3.852502       2.214258      -0.532178       0.632717       0.562544
      3   1    1.0000       2.528776       4.986213       3.082473       0.091071       0.289017       0.952982
      4   2   -1.0000       3.213566       4.338457      -3.415122      -0.406675       0.299030       0.863248
      5   2   -1.0000      -0.205766       0.813118      -1.660109      -0.825762       0.434289       0.359876
ITEM: TIMESTEP
400
ITEM: NUMBER OF ATOMS
5
ITEM: BOX BOUNDS ff ff ff
-5.00000000    5.00000000     
-5.00000000    5.00000000     
-5.00000000    5.00000000     
ITEM: ATOMS id type q x y z mux muy muz
      1   1    1.0000       2.218872       2.746798       1.253382       0.647975       0.337044       0.683030
      2   2   -1.0000      -2.513613       3.890319       2.179695      -0.559077       0.629791       0.539255
      3   1    1.0000       2.564865       4.993218       3.102254       0.093197       0.338258       0.936427
      4   2   -1.0000       3.188202       4.280571      -3.390533      -0.434675       0.250415       0.865072
      5   2   -1.0000      -0.266358       0.815239      -1.643727      -0.648053       0.537610       0.539446
ITEM: TIMESTEP
500
ITEM: NUMBER OF ATOMS
5
ITEM: BOX BOUNDS ff ff ff
-5.00000000    5.00000000     
-5.00000000    5.00000000     
-5.00000000    5.00000000     
ITEM: ATOMS id type q x y z mux muy muz
      1   1    1.0000       2.238950       2.757391       1.226043       0.658172       0.328509       0.677415
      2   2   -1.0000      -2.483921       3.928407       2.145621      -0.587864       0.624900       0.513727
      3   1    1.0000       2.600706       4.999752       3.122306       0.090219       0.387349       0.917508
      4   2   -1.0000       3.163114       4.222924      -3.365840      -0.463705       0.201388       0.862798
      5   2   -1.0000      -0.326883       0.817176      -1.627059      -0.414376       0.603895       0.680884
ITEM: TIMESTEP
600
ITEM: NUMBER OF ATOMS
5
ITEM: BOX BOUNDS ff ff ff
-5.00000000    5.00000000     
-5.00000000    5.00000000     
-5.00000000    5.00000000     
ITEM: ATOMS id type q x y z mux muy muz
      1   1    1.0000       2.258459       2.767668       1.197645       0.668624       0.321050       0.670723
      2   2   -1.0000      -2.453723       3.966758       2.112049      -0.617960       0.617933       0.486090
      3   1    1.0000       2.636287       4.992717       3.142563       0.082892       0.435470       0.896379
      4   2   -1.0000       3.138306       4.165511      -3.341024      -0.493366       0.152663       0.856320
      5   2   -1.0000      -0.387362       0.818923      -1.610162      -0.142230       0.624100       0.768291
ITEM: TIMESTEP
700
ITEM: NUMBER OF ATOMS
5
ITEM: BOX BOUNDS ff ff ff
-5.00000000    5.00000000     
-5.00000000    5.00000000     
-5.00000000    5.00000000     
ITEM: ATOMS id type q x y z mux muy muz
      1   1    1.0000       2.277408       2.777660       1.168271       0.678990       0.314762       0.663248
      2   2   -1.0000      -2.422995       4.005375       2.079002      -0.648921       0.608786       0.456378
      3   1    1.0000       2.671590       4.985675       3.162962       0.071842       0.481983       0.873230
      4   2   -1.0000       3.113774       4.108323      -3.316064      -0.523382       0.104788       0.845630
      5   2   -1.0000      -0.447811       0.820475      -1.593100       0.145591       0.594049       0.791144
ITEM: TIMESTEP
800
ITEM: NUMBER OF ATOMS
5
ITEM: BOX BOUNDS ff ff ff
-5.00000000    5.00000000     
-5.00000000    5.00000000     
-5.00000000    5.00000000     
ITEM: ATOMS id type q x y z mux muy muz
      1   1    1.0000       2.295807       2.787391       1.137997       0.688986       0.309727       0.655262
      2   2   -1.0000      -2.391712       4.044270       2.046511      -0.680385       0.597346       0.424564
      3   1    1.0000       2.706593       4.978621       3.183446       0.057599       0.526344       0.848319
      4   2   -1.0000       3.089514       4.051341      -3.290941      -0.553545       0.058204       0.830783
      5   2   -1.0000      -0.508235       0.821819      -1.575942       0.423787       0.514719       0.745298
ITEM: TIMESTEP
900
ITEM: NUMBER OF ATOMS
5
ITEM: BOX BOUNDS ff ff ff
-5.00000000    5.00000000     
-5.00000000    5.00000000     
-5.00000000    5.00000000     
ITEM: ATOMS id type q x y z mux muy muz
      1   1    1.0000       2.313664       2.796878       1.106885       0.698381       0.306003       0.647014
      2   2   -1.0000      -2.359853       4.083467       2.014615      -0.712028       0.583487       0.390588
      3   1    1.0000       2.741273       4.971552       3.203959       0.040630       0.568077       0.821972
      4   2   -1.0000       3.065518       3.994545      -3.265634      -0.583675       0.013282       0.811878
      5   2   -1.0000      -0.568635       0.822940      -1.558754       0.667292       0.392010       0.633285
ITEM: TIMESTEP
1000
ITEM: NUMBER OF ATOMS
5
ITEM: BOX BOUNDS ff ff ff
-5.00000000    5.00000000     
-5.00000000    5.00000000     
-5.00000000    5.00000000     
ITEM: ATOMS id type q x y z mux muy muz
      1   1    1.0000       2.330985       2.806129       1.074984       0.706996       0.303625       0.638724
      2   2   -1.0000      -2.327401       4.123000       1.983355      -0.743536       0.567069       0.354382
      3   1    1.0000       2.775605       4.964471       3.224456       0.021356       0.606784       0.794580
      4   2   -1.0000       3.041776       3.937912      -3.240126      -0.613598      -0.029659       0.789061
      5   2   -1.0000      -0.628999       0.823816      -1.541598       0.853793       0.236101       0.463998
ITEM: TIMESTEP
1100
ITEM: NUMBER OF ATOMS
5
ITEM: BOX BOUNDS ff ff ff
-5.00000000    5.00000000     
-5.00000000    5.00000000     
-5.00000000    5.00000000     
ITEM: ATOMS id type q x y z mux muy muz
      1   1    1.0000       2.347774       2.815146       1.042330       0.714713       0.302589       0.630575
      2   2   -1.0000      -2.294340       4.162909       1.952777      -0.774577       0.547942       0.315897
      3   1    1.0000       2.809563       4.957386       3.244894       0.000163       0.642155       0.766575
      4   2   -1.0000       3.018277       3.881416      -3.214400      -0.643129      -0.070354       0.762519
      5   2   -1.0000      -0.689308       0.824422      -1.524528       0.965882       0.060463       0.251826
ITEM: TIMESTEP
1200
ITEM: NUMBER OF ATOMS
5
ITEM: BOX BOUNDS ff ff ff
-5.00000000    5.00000000     
-5.00000000    5.00000000     
-5.00000000    5.00000000     
ITEM: ATOMS id type q x y z mux muy muz
      1   1    1.0000       2.364029       2.823924       1.008945       0.721471       0.302857       0.622702
      2   2   -1.0000      -2.260661       4.203241       1.922924      -0.804785       0.525958       0.275116
      3   1    1.0000       2.843120       4.950306       3.265236      -0.022594       0.673971       0.738412
      4   2   -1.0000       2.995012       3.825037      -3.188444      -0.672069      -0.108596       0.732482
      5   2   -1.0000      -0.749534       0.824728      -1.507589       0.992727      -0.119406       0.015326
ITEM: TIMESTEP
1300
ITEM: NUMBER OF ATOMS
5
ITEM: BOX BOUNDS ff ff ff
-5.00000000    5.00000000     
-5.00000000    5.00000000     
-5.00000000    5.00000000     
ITEM: ATOMS id type q x y z mux muy muz
      1   1    1.0000       2.379747       2.832454       0.974839       0.727268       0.304351       0.615185
      2   2   -1.0000      -2.226357       4.244041       1.893836      -0.833756       0.500986       0.232085
      3   1    1.0000       2.876251       4.943242       3.285453      -0.046585       0.702116       0.710537
      4   2   -1.0000       2.971971       3.768758      -3.162246      -0.700206      -0.144246       0.699217
      5   2   -1.0000      -0.809646       0.824705      -1.490811       0.931139      -0.287399      -0.224458
ITEM: TIMESTEP
1400
ITEM: NUMBER OF ATOMS
5
ITEM: BOX BOUNDS ff ff ff
-5.00000000    5.00000000     
-5.00000000    5.00000000     
-5.00000000    5.00000000     
ITEM: ATOMS id type q x y z mux muy muz
      1   1    1.0000       2.394921       2.840719       0.940011       0.732162       0.306962       0.608040
      2   2   -1.0000      -2.191426       4.285350       1.865547      -0.861043       0.472932       0.186922
      3   1    1.0000       2.908927       4.936206       3.305519      -0.071505       0.726569       0.683363
      4   2   -1.0000       2.949153       3.712569      -3.135796      -0.727322      -0.177236       0.663016
      5   2   -1.0000      -0.869608       0.824324      -1.474209       0.785964      -0.428281      -0.445911
ITEM: TIMESTEP
1500
ITEM: NUMBER OF ATOMS
5
ITEM: BOX BOUNDS ff ff ff
-5.00000000    5.00000000     
-5.00000000    5.00000000     
-5.00000000    5.00000000     
ITEM: ATOMS id type q x y z mux muy muz
      1   1    1.0000       2.409542       2.848702       0.904448       0.736268       0.310561       0.601217
      2   2   -1.0000      -2.155868       4.327201       1.838078      -0.886167       0.441764       0.139834
      3   1    1.0000       2.941120       4.929211       3.325414      -0.097082       0.747394       0.657250
      4   2   -1.0000       2.926556       3.656467      -3.109085      -0.753198      -0.207574       0.624184
      5   2   -1.0000      -0.929384       0.823563      -1.457784       0.569747      -0.529114      -0.628830
ITEM: TIMESTEP
1600
ITEM: NUMBER OF ATOMS
5
ITEM: BOX BOUNDS ff ff ff
-5.00000000    5.00000000     
-5.00000000    5.00000000     
-5.00000000    5.00000000     
ITEM: ATOMS id type q x y z mux muy muz
      1   1    1.0000       2.423600       2.856381       0.868133       0.739746       0.315010       0.594596
      2   2   -1.0000      -2.119686       4.369613       1.811442      -0.908634       0.407531       0.091121
      3   1    1.0000       2.972805       4.922271       3.345122      -0.123069       0.764730       0.632489
      4   2   -1.0000       2.904187       3.600459      -3.082102      -0.777627      -0.235336       0.583020
      5   2   -1.0000      -0.988940       0.822405      -1.441524       0.301688      -0.580489      -0.756318
ITEM: TIMESTEP
1700
ITEM: NUMBER OF ATOMS
5
ITEM: BOX BOUNDS ff ff ff
-5.00000000    5.00000000     
-5.00000000    5.00000000     
-5.00000000    5.00000000     
ITEM: ATOMS id type q x y z mux muy muz
      1   1    1.0000       2.437087       2.863735       0.831041       0.742803       0.320176       0.587989
      2   2   -1.0000      -2.082885       4.412588       1.785641      -0.927963       0.370389       0.041177
      3   1    1.0000       3.003954       4.915399       3.364632      -0.149252       0.778769       0.609297
      4   2   -1.0000       2.882057       3.544558      -3.054836      -0.800418      -0.260658       0.539804
      5   2   -1.0000      -1.048246       0.820845      -1.425407       0.005951      -0.577450      -0.816404
ITEM: TIMESTEP
1800
ITEM: NUMBER OF ATOMS
5
ITEM: BOX BOUNDS ff ff ff
-5.00000000    5.00000000     
-5.00000000    5.00000000     
-5.00000000    5.00000000     
ITEM: ATOMS id type q x y z mux muy muz
      1   1    1.0000       2.449996       2.870744       0.793144       0.745674       0.325948       0.581144
      2   2   -1.0000      -2.045472       4.456113       1.760662      -0.943719       0.330610      -0.009522
      3   1    1.0000       3.034543       4.908609       3.383936      -0.175442       0.789742       0.587817
      4   2   -1.0000       2.860180       3.488782      -3.027271      -0.821402      -0.283717       0.494776
      5   2   -1.0000      -1.107280       0.818887      -1.409400      -0.290529      -0.520023      -0.803224
ITEM: TIMESTEP
1900
ITEM: NUMBER OF ATOMS
5
ITEM: BOX BOUNDS ff ff ff
-5.00000000    5.00000000     
-5.00000000    5.00000000     
-5.00000000    5.00000000     
ITEM: ATOMS id type q x y z mux muy muz
      1   1    1.0000       2.462320       2.877389       0.754414       0.748620       0.332246       0.573743
      2   2   -1.0000      -2.007454       4.500153       1.736487      -0.955545       0.288585      -0.060439
      3   1    1.0000       3.064549       4.901915       3.403027      -0.201481       0.797899       0.568123
      4   2   -1.0000       2.838575       3.433160      -2.999387      -0.840436      -0.304707       0.448131
      5   2   -1.0000      -1.166024       0.816547      -1.393470      -0.560535      -0.413266      -0.717643
ITEM: TIMESTEP
2000
ITEM: NUMBER OF ATOMS
5
ITEM: BOX BOUNDS ff ff ff
-5.00000000    5.00000000     
-5.00000000    5.00000000     
-5.00000000    5.00000000     
ITEM: ATOMS id type q x y z mux muy muz
      1   1    1.0000       2.474059       2.883654       0.714818       0.751913       0.339031       0.565407
      2   2   -1.0000      -1.968837       4.544660       1.713088      -0.963195       0.244815      -0.111004
      3   1    1.0000       3.093949       4.895332       3.421905      -0.227234       0.803498       0.550233
      4   2   -1.0000       2.817264       3.377719      -2.971158      -0.857399      -0.323822       0.400008
      5   2   -1.0000      -1.224469       0.813850      -1.377582      -0.779121      -0.266848      -0.567242
ITEM: TIMESTEP
2100
ITEM: NUMBER OF ATOMS
5
ITEM: BOX BOUNDS ff ff ff
-5.00000000    5.00000000     
-5.00000000    5.00000000     
-5.00000000    5.00000000     
ITEM: ATOMS id type q x y z mux muy muz
      1   1    1.0000       2.485214       2.889530       0.674328       0.755824       0.346306       0.555700
      2   2   -1.0000      -1.929629       4.589571       1.690432      -0.966559       0.199891      -0.160644
      3   1    1.0000       3.122725       4.888875       3.440570      -0.252591       0.806792       0.534120
      4   2   -1.0000       2.796270       3.322493      -2.942552      -0.872191      -0.341230       0.350491
      5   2   -1.0000      -1.282613       0.810828      -1.361706      -0.925973      -0.094176      -0.365657
ITEM: TIMESTEP
2200
ITEM: NUMBER OF ATOMS
5
ITEM: BOX BOUNDS ff ff ff
-5.00000000    5.00000000     
-5.00000000    5.00000000     
-5.00000000    5.00000000     
ITEM: ATOMS id type q x y z mux muy muz
      1   1    1.0000       2.495789       2.895008       0.632913       0.760608       0.354119       0.544128
      2   2   -1.0000      -1.889836       4.634812       1.668485      -0.965680       0.154458      -0.208819
      3   1    1.0000       3.150856       4.882556       3.459022      -0.277464       0.808024       0.519722
      4   2   -1.0000       2.775614       3.267515      -2.913529      -0.884725      -0.357058       0.299619
      5   2   -1.0000      -1.340457       0.807518      -1.345820      -0.987348       0.088838      -0.131347
ITEM: TIMESTEP
2300
ITEM: NUMBER OF ATOMS
5
ITEM: BOX BOUNDS ff ff ff
-5.00000000    5.00000000     
-5.00000000    5.00000000     
-5.00000000    5.00000000     
ITEM: ATOMS id type q x y z mux muy muz
      1   1    1.0000       2.505791       2.900086       0.590544       0.766492       0.362554       0.530136
      2   2   -1.0000      -1.849466       4.680304       1.647215      -0.960745       0.109177      -0.255048
      3   1    1.0000       3.178327       4.876391       3.477266      -0.301784       0.807418       0.506954
      4   2   -1.0000       2.755321       3.212819      -2.884042      -0.894919      -0.371374       0.247389
      5   2   -1.0000      -1.398006       0.803961      -1.329911      -0.957402       0.265254       0.114118
ITEM: TIMESTEP
2400
ITEM: NUMBER OF ATOMS
5
ITEM: BOX BOUNDS ff ff ff
-5.00000000    5.00000000     
-5.00000000    5.00000000     
-5.00000000    5.00000000     
ITEM: ATOMS id type q x y z mux muy muz
      1   1    1.0000       2.515226       2.904766       0.547192       0.773650       0.371721       0.513117
      2   2   -1.0000      -1.808523       4.725967       1.626592      -0.952079       0.064681      -0.298936
      3   1    1.0000       3.205121       4.870392       3.495303      -0.325506       0.805181       0.495711
      4   2   -1.0000       2.735410       3.158439      -2.854038      -0.902691      -0.384186       0.193780
      5   2   -1.0000      -1.455267       0.800195      -1.313978      -0.838780       0.418693       0.348059
ITEM: TIMESTEP
2500
ITEM: NUMBER OF ATOMS
5
ITEM: BOX BOUNDS ff ff ff
-5.00000000    5.00000000     
-5.00000000    5.00000000     
-5.00000000    5.00000000     
ITEM: ATOMS id type q x y z mux muy muz
      1   1    1.0000       2.524100       2.909054       0.502827       0.782187       0.381739       0.492401
      2   2   -1.0000      -1.767016       4.771721       1.606593      -0.940113       0.021538      -0.340181
      3   1    1.0000       3.231220       4.864571       3.513136      -0.348604       0.801497       0.485878
      4   2   -1.0000       2.715905       3.104411      -2.823457      -0.907951      -0.395435       0.138765
      5   2   -1.0000      -1.512242       0.796255      -1.298028      -0.642415       0.534881       0.548822
ITEM: TIMESTEP
2600
ITEM: NUMBER OF ATOMS
5
ITEM: BOX BOUNDS ff ff ff
-5.00000000    5.00000000     
-5.00000000    5.00000000     
-5.00000000    5.00000000     
ITEM: ATOMS id type q x y z mux muy muz
      1   1    1.0000       2.532418       2.912954       0.457416       0.792113       0.392714       0.467262
      2   2   -1.0000      -1.724953       4.817491       1.587198      -0.925356      -0.019786      -0.378582
      3   1    1.0000       3.256608       4.858939       3.530766      -0.371079       0.796530       0.477326
      4   2   -1.0000       2.696824       3.050770      -2.792231      -0.910599      -0.405007       0.082331
      5   2   -1.0000      -1.568931       0.792172      -1.282078      -0.386532       0.603013       0.697831
ITEM: TIMESTEP
2700
ITEM: NUMBER OF ATOMS
5
ITEM: BOX BOUNDS ff ff ff
-5.00000000    5.00000000     
-5.00000000    5.00000000     
-5.00000000    5.00000000     
ITEM: ATOMS id type q x y z mux muy muz
      1   1    1.0000       2.540177       2.916473       0.410923       0.803317       0.404709       0.436912
      2   2   -1.0000      -1.682343       4.863210       1.568397      -0.908354      -0.058949      -0.414027
      3   1    1.0000       3.281267       4.853503       3.548190      -0.392955       0.790423       0.469913
      4   2   -1.0000       2.678192       2.997555      -2.760286      -0.910518      -0.412743       0.024500
      5   2   -1.0000      -1.625326       0.787971      -1.266153      -0.094946       0.616798       0.781374
ITEM: TIMESTEP
2800
ITEM: NUMBER OF ATOMS
5
ITEM: BOX BOUNDS ff ff ff
-5.00000000    5.00000000     
-5.00000000    5.00000000     
-5.00000000    5.00000000     
ITEM: ATOMS id type q x y z mux muy muz
      1   1    1.0000       2.547370       2.919616       0.363303       0.815543       0.417715       0.400505
      2   2   -1.0000      -1.639202       4.908815       1.550185      -0.889655      -0.095740      -0.446483
      3   1    1.0000       3.305178       4.848268       3.565404      -0.414280       0.783296       0.463486
      4   2   -1.0000       2.660031       2.944807      -2.727542      -0.907575      -0.418458      -0.034661
      5   2   -1.0000      -1.681411       0.783669      -1.250280       0.205219       0.575081       0.791939
ITEM: TIMESTEP
2900
ITEM: NUMBER OF ATOMS
5
ITEM: BOX BOUNDS ff ff ff
-5.00000000    5.00000000     
-5.00000000    5.00000000     
-5.00000000    5.00000000     
ITEM: ATOMS id type q x y z mux muy muz
      1   1    1.0000       2.553983       2.922380       0.314506       0.828355       0.431607       0.357132
      2   2   -1.0000      -1.595548       4.954253       1.532563      -0.869783      -0.130085      -0.475978
      3   1    1.0000       3.328321       4.843237       3.582400      -0.435132       0.775250       0.457874
      4   2   -1.0000       2.642373       2.892577      -2.693907      -0.901622      -0.421960      -0.095019
      5   2   -1.0000      -1.737163       0.779281      -1.234490       0.486163       0.481956       0.728947
ITEM: TIMESTEP
3000
ITEM: NUMBER OF ATOMS
5
ITEM: BOX BOUNDS ff ff ff
-5.00000000    5.00000000     
-5.00000000    5.00000000     
-5.00000000    5.00000000     
ITEM: ATOMS id type q x y z mux muy muz
      1   1    1.0000       2.559993       2.924758       0.264466       0.841107       0.446104       0.305828
      2   2   -1.0000      -1.551409       4.999478       1.515537      -0.849214      -0.162025      -0.502578
      3   1    1.0000       3.350672       4.838407       3.599163      -0.455608       0.766362       0.452892
      4   2   -1.0000       2.625255       2.840926      -2.659281      -0.892499      -0.423076      -0.156373
      5   2   -1.0000      -1.792546       0.774814      -1.218814       0.722144       0.346352       0.598789
ITEM: TIMESTEP
3100
ITEM: NUMBER OF ATOMS
5
ITEM: BOX BOUNDS ff ff ff
-5.00000000    5.00000000     
-5.00000000    5.00000000     
-5.00000000    5.00000000     
ITEM: ATOMS id type q x y z mux muy muz
      1   1    1.0000       2.565366       2.926728       0.213102       0.852891       0.460716       0.245597
      2   2   -1.0000      -1.506818       4.955683       1.499119      -0.828354      -0.191719      -0.526378
      3   1    1.0000       3.372210       4.833772       3.615675      -0.475836       0.756684       0.448341
      4   2   -1.0000       2.608725       2.789932      -2.623545      -0.880040      -0.421679      -0.218441
      5   2   -1.0000      -1.847516       0.770271      -1.203281       0.892011       0.181109       0.414144
ITEM: TIMESTEP
3200
ITEM: NUMBER OF ATOMS
5
ITEM: BOX BOUNDS ff ff ff
-5.00000000    5.00000000     
-5.00000000    5.00000000     
-5.00000000    5.00000000     
ITEM: ATOMS id type q x y z mux muy muz
      1   1    1.0000       2.570057       2.928248       0.160274       0.862478       0.474700       0.175478
      2   2   -1.0000      -1.461783       4.911396       1.483316      -0.807515      -0.219475      -0.547495
      3   1    1.0000       3.392926       4.829311       3.631926      -0.495984       0.746221       0.444020
      4   2   -1.0000       2.592831       2.739656      -2.586535      -0.864080      -0.417722      -0.280846
      5   2   -1.0000      -1.902064       0.765651      -1.187910       0.981268       0.001652       0.192641
ITEM: TIMESTEP
3300
ITEM: NUMBER OF ATOMS
5
ITEM: BOX BOUNDS ff ff ff
-5.00000000    5.00000000     
-5.00000000    5.00000000     
-5.00000000    5.00000000     
ITEM: ATOMS id type q x y z mux muy muz
      1   1    1.0000       2.574006       2.929256       0.105852       0.868279       0.486984       0.094545
      2   2   -1.0000      -1.416353       4.867743       1.468148      -0.786918      -0.245662      -0.566048
      3   1    1.0000       3.412796       4.825002       3.647886      -0.516233       0.734953       0.439713
      4   2   -1.0000       2.577649       2.690229      -2.548082      -0.844466      -0.411252      -0.343146
      5   2   -1.0000      -1.956131       0.760950      -1.172732       0.983424      -0.175636      -0.045042
ITEM: TIMESTEP
3400
ITEM: NUMBER OF ATOMS
5
ITEM: BOX BOUNDS ff ff ff
-5.00000000    5.00000000     
-5.00000000    5.00000000     
-5.00000000    5.00000000     
ITEM: ATOMS id type q x y z mux muy muz
      1   1    1.0000       2.577145       2.929659       0.049674       0.868276       0.496078       0.002006
      2   2   -1.0000      -1.370598       4.824821       1.453641      -0.766715      -0.270651      -0.582147
      3   1    1.0000       3.431793       4.820821       3.663518      -0.536756       0.722847       0.435183
      4   2   -1.0000       2.563272       2.641820      -2.507983      -0.821059      -0.402440      -0.404850
      5   2   -1.0000      -2.009645       0.756167      -1.157779       0.900429      -0.335107      -0.277363
ITEM: TIMESTEP
3500
ITEM: NUMBER OF ATOMS
5
ITEM: BOX BOUNDS ff ff ff
-5.00000000    5.00000000     
-5.00000000    5.00000000     
-5.00000000    5.00000000     
ITEM: ATOMS id type q x y z mux muy muz
      1   1    1.0000       2.579399       2.929326      -0.008461       0.859937       0.499983      -0.102593
      2   2   -1.0000      -1.324614       4.782742       1.439826      -0.747002      -0.294789      -0.595892
      3   1    1.0000       3.449885       4.816744       3.678777      -0.557704       0.709865       0.430183
      4   2   -1.0000       2.549810       2.594658      -2.465984      -0.793735      -0.391603      -0.465437
      5   2   -1.0000      -2.062513       0.751300      -1.143087       0.742176      -0.463425      -0.484161
ITEM: TIMESTEP
3600
ITEM: NUMBER OF ATOMS
5
ITEM: BOX BOUNDS ff ff ff
-5.00000000    5.00000000     
-5.00000000    5.00000000     
-5.00000000    5.00000000     
ITEM: ATOMS id type q x y z mux muy muz
      1   1    1.0000       2.580688       2.928081      -0.068798       0.840167       0.496120      -0.219054
      2   2   -1.0000      -1.278530       4.741641       1.426736      -0.727832      -0.318362      -0.607376
      3   1    1.0000       3.467034       4.812747       3.693605      -0.579194       0.695968       0.424455
      4   2   -1.0000       2.537390       2.549047      -2.421771      -0.762371      -0.379229      -0.524382
      5   2   -1.0000      -2.114615       0.746352      -1.128700       0.525138      -0.550853      -0.648684
ITEM: TIMESTEP
3700
ITEM: NUMBER OF ATOMS
5
ITEM: BOX BOUNDS ff ff ff
-5.00000000    5.00000000     
-5.00000000    5.00000000     
-5.00000000    5.00000000     
ITEM: ATOMS id type q x y z mux muy muz
      1   1    1.0000       2.580934       2.925677      -0.131642       0.805348       0.481305      -0.346065
      2   2   -1.0000      -1.232527       4.701678       1.414411      -0.709233      -0.341576      -0.616696
      3   1    1.0000       3.483195       4.808808       3.707931      -0.601297       0.681127       0.417741
      4   2   -1.0000       2.526151       2.505398      -2.374955      -0.726819      -0.366000      -0.581187
      5   2   -1.0000      -2.165787       0.741332      -1.114674       0.270294      -0.592099      -0.759184
ITEM: TIMESTEP
3800
ITEM: NUMBER OF ATOMS
5
ITEM: BOX BOUNDS ff ff ff
-5.00000000    5.00000000     
-5.00000000    5.00000000     
-5.00000000    5.00000000     
ITEM: ATOMS id type q x y z mux muy muz
      1   1    1.0000       2.580068       2.921782      -0.197362       0.751552       0.451859      -0.480617
      2   2   -1.0000      -1.186850       4.663055       1.402899      -0.691221      -0.364539      -0.623958
      3   1    1.0000       3.498310       4.804913       3.721668      -0.624031       0.665328       0.409785
      4   2   -1.0000       2.516241       2.464266      -2.325052      -0.686859      -0.352807      -0.635414
      5   2   -1.0000      -2.215802       0.736257      -1.101082       0.000588      -0.586609      -0.809870
ITEM: TIMESTEP
3900
ITEM: NUMBER OF ATOMS
5
ITEM: BOX BOUNDS ff ff ff
-5.00000000    5.00000000     
-5.00000000    5.00000000     
-5.00000000    5.00000000     
ITEM: ATOMS id type q x y z mux muy muz