ITEM: TIMESTEP
0
ITEM: NUMBER OF ATOMS
5
ITEM: BOX BOUNDS ff ff ff
-5.00000000    5.00000000     
-5.00000000    5.00000000     
-5.00000000    5.00000000     
ITEM: ATOMS id type q x y z mux muy muz
      1   1    1.0000       1.337785       0.904643       1.519503       0.044454       0.919973      -0.389453
      2   2   -1.0000      -4.739031       0.487354       0.948465      -0.161424       0.849905      -0.501601
      3   1    1.0000      -2.924903      -2.916666      -2.237507       0.247667      -0.876169      -0.413509
      4   2   -1.0000       2.116963       1.062549       3.457935       0.161696       0.573598      -0.803019
      5   2   -1.0000      -2.042996       4.120398       2.437153       0.658827       0.255621      -0.707534
ITEM: TIMESTEP
100
ITEM: NUMBER OF ATOMS
5
ITEM: BOX BOUNDS ff ff ff
-5.00000000    5.00000000     
-5.00000000    5.00000000     
-5.00000000    5.00000000     
ITEM: ATOMS id type q x y z mux muy muz
      1   1    1.0000       1.327614       0.931465       1.536866       0.038014       0.923486      -0.381745
      2   2   -1.0000      -4.725380       0.499008       0.859870      -0.157604       0.846899      -0.507862
      3   1    1.0000      -2.945415      -2.916005      -2.206234       0.279140      -0.877222      -0.390592
      4   2   -1.0000       2.092026       1.051503       3.488857       0.166483       0.577825      -0.799000
      5   2   -1.0000      -2.001026       4.092307       2.446189       0.443026       0.119037      -0.888571
ITEM: TIMESTEP
200
ITEM: NUMBER OF ATOMS
5
ITEM: BOX BOUNDS ff ff ff
-5.00000000    5.00000000     
-5.00000000    5.00000000     
-5.00000000    5.00000000     
ITEM: ATOMS id type q x y z mux muy muz
      1   1    1.0000       1.316610       0.957970       1.554454       0.026445       0.930607      -0.365063
      2   2   -1.0000      -4.711756       0.510168       0.771027      -0.153415       0.847188      -0.508662
      3   1    1.0000      -2.966006      -2.915129      -2.174760       0.308045      -0.878260      -0.365742
      4   2   -1.0000       2.067859       1.040705       3.519832       0.173668       0.584472      -0.792611
      5   2   -1.0000      -1.958889       4.064565       2.454997       0.182499      -0.029472      -0.982764
ITEM: TIMESTEP
300
ITEM: NUMBER OF ATOMS
5
ITEM: BOX BOUNDS ff ff ff
-5.00000000    5.00000000     
-5.00000000    5.00000000     
-5.00000000    5.00000000     
ITEM: ATOMS id type q x y z mux muy muz
      1   1    1.0000       1.304785       0.984213       1.572290       0.009894       0.940512      -0.339617
      2   2   -1.0000      -4.698149       0.520870       0.681977      -0.149262       0.850324      -0.504649
      3   1    1.0000      -2.986667      -2.914032      -2.143103       0.334453      -0.879278      -0.339133
      4   2   -1.0000       2.044460       1.030107       3.550847       0.182884       0.593208      -0.784001
      5   2   -1.0000      -1.916610       4.037119       2.463538      -0.096783      -0.174776      -0.979840
ITEM: TIMESTEP
400
ITEM: NUMBER OF ATOMS
5
ITEM: BOX BOUNDS ff ff ff
-5.00000000    5.00000000     
-5.00000000    5.00000000     
-5.00000000    5.00000000     
ITEM: ATOMS id type q x y z mux muy muz
      1   1    1.0000       1.292137       1.010255       1.590398      -0.011489       0.952118      -0.305516
      2   2   -1.0000      -4.684548       0.531150       0.592776      -0.145438       0.855773      -0.496488
      3   1    1.0000      -3.007389      -2.912705      -2.111280       0.358504      -0.880236      -0.310901
      4   2   -1.0000       2.021819       1.019678       3.581886       0.193973       0.603752      -0.773213
      5   2   -1.0000      -1.874200       4.009900       2.471769      -0.366659      -0.301964      -0.879988
ITEM: TIMESTEP
500
ITEM: NUMBER OF ATOMS
5
ITEM: BOX BOUNDS ff ff ff
-5.00000000    5.00000000     
-5.00000000    5.00000000     
-5.00000000    5.00000000     
ITEM: ATOMS id type q x y z mux muy muz
      1   1    1.0000       1.278645       1.036158       1.608800      -0.037564       0.964111      -0.262829
      2   2   -1.0000      -4.670945       0.541033       0.503489      -0.142108       0.863000      -0.484805
      3   1    1.0000      -3.028162      -2.911138      -2.079311       0.380389      -0.881061      -0.281134
      4   2   -1.0000       1.999926       1.009401       3.612929       0.206974       0.615838      -0.760201
      5   2   -1.0000      -1.831647       3.982823       2.479641      -0.600111      -0.398106      -0.693815
ITEM: TIMESTEP
600
ITEM: NUMBER OF ATOMS
5
ITEM: BOX BOUNDS ff ff ff
-5.00000000    5.00000000     
-5.00000000    5.00000000     
-5.00000000    5.00000000     
ITEM: ATOMS id type q x y z mux muy muz
      1   1    1.0000       1.264276       1.061983       1.627512      -0.068188       0.974965      -0.211647
      2   2   -1.0000      -4.657333       0.550533       0.414187      -0.139306       0.871534      -0.470130
      3   1    1.0000      -3.048978      -2.909317      -2.047214       0.400339      -0.881645      -0.249860
      4   2   -1.0000       1.978769       0.999280       3.643953       0.222099       0.629199      -0.744836
      5   2   -1.0000      -1.788916       3.955798       2.487111      -0.774400      -0.453725      -0.440952
ITEM: TIMESTEP
700
ITEM: NUMBER OF ATOMS
5
ITEM: BOX BOUNDS ff ff ff
-5.00000000    5.00000000     
-5.00000000    5.00000000     
-5.00000000    5.00000000     
ITEM: ATOMS id type q x y z mux muy muz
      1   1    1.0000       1.248978       1.087782       1.646542      -0.103203       0.982956      -0.152142
      2   2   -1.0000      -4.643712       0.559648       0.324947      -0.136953       0.880997      -0.452866
      3   1    1.0000      -3.069826      -2.907226      -2.015011       0.418605      -0.881853      -0.217037
      4   2   -1.0000       1.958332       0.989338       3.674924       0.239714       0.643544      -0.726903
      5   2   -1.0000      -1.745955       3.928737       2.494147      -0.873572      -0.463787      -0.147556
ITEM: TIMESTEP
800
ITEM: NUMBER OF ATOMS
5
ITEM: BOX BOUNDS ff ff ff
-5.00000000    5.00000000     
-5.00000000    5.00000000     
-5.00000000    5.00000000     
ITEM: ATOMS id type q x y z mux muy muz
      1   1    1.0000       1.232693       1.113592       1.665895      -0.142401       0.986184      -0.084630
      2   2   -1.0000      -4.630085       0.568363       0.235844      -0.134881       0.891115      -0.433267
      3   1    1.0000      -3.090698      -2.904849      -1.982723       0.435439      -0.881513      -0.182558
      4   2   -1.0000       1.938600       0.979615       3.705798       0.260327       0.658543      -0.706082
      5   2   -1.0000      -1.702692       3.901557       2.500734      -0.890007      -0.428094       0.156917
ITEM: TIMESTEP
900
ITEM: NUMBER OF ATOMS
5
ITEM: BOX BOUNDS ff ff ff
-5.00000000    5.00000000     
-5.00000000    5.00000000     
-5.00000000    5.00000000     
ITEM: ATOMS id type q x y z mux muy muz
      1   1    1.0000       1.215354       1.139427       1.685567      -0.185480       0.982601      -0.009624
      2   2   -1.0000      -4.616459       0.576648       0.146950      -0.132866       0.901698      -0.411445
      3   1    1.0000      -3.111588      -2.902164      -1.950373       0.451086      -0.880416      -0.146250
      4   2   -1.0000       1.919556       0.970175       3.736520       0.284555       0.673809      -0.681917
      5   2   -1.0000      -1.659046       3.874191       2.506884      -0.824847      -0.351043       0.443167
ITEM: TIMESTEP
1000
ITEM: NUMBER OF ATOMS
5
ITEM: BOX BOUNDS ff ff ff
-5.00000000    5.00000000     
-5.00000000    5.00000000     
-5.00000000    5.00000000     
ITEM: ATOMS id type q x y z mux muy muz
      1   1    1.0000       1.196898       1.165274       1.705561      -0.231986       0.970043       0.072108
      2   2   -1.0000      -4.602842       0.584467       0.058323      -0.130662       0.912612      -0.387385
      3   1    1.0000      -3.132489      -2.899150      -1.917981       0.465760      -0.878309      -0.107890
      4   2   -1.0000       1.901183       0.961096       3.767015       0.313092       0.688872      -0.653780
      5   2   -1.0000      -1.614932       3.846591       2.512631      -0.687332      -0.240848       0.685249
ITEM: TIMESTEP
1100
ITEM: NUMBER OF ATOMS
5
ITEM: BOX BOUNDS ff ff ff
-5.00000000    5.00000000     
-5.00000000    5.00000000     
-5.00000000    5.00000000     
ITEM: ATOMS id type q x y z mux muy muz
      1   1    1.0000       1.177267       1.191082       1.725889      -0.281244       0.946291       0.159482
      2   2   -1.0000      -4.589243       0.591775      -0.029990      -0.128033       0.923739      -0.360989
      3   1    1.0000      -3.153401      -2.895786      -1.885569       0.479636      -0.874889      -0.067224
      4   2   -1.0000       1.883463       0.952475       3.797188       0.346653       0.703140      -0.620827
      5   2   -1.0000      -1.570268       3.818731       2.518031      -0.493228      -0.108367       0.863124
ITEM: TIMESTEP
1200
ITEM: NUMBER OF ATOMS
5
ITEM: BOX BOUNDS ff ff ff
-5.00000000    5.00000000     
-5.00000000    5.00000000     
-5.00000000    5.00000000     
ITEM: ATOMS id type q x y z mux muy muz
      1   1    1.0000       1.156416       1.216765       1.746586      -0.332277       0.909159       0.251041
      2   2   -1.0000      -4.575667       0.598531      -0.117960      -0.124778       0.934948      -0.332118
      3   1    1.0000      -3.174324      -2.892047      -1.853152       0.492835      -0.869792      -0.023994
      4   2   -1.0000       1.866372       0.944419       3.826919       0.385882       0.715838      -0.581954
      5   2   -1.0000      -1.524980       3.790608       2.523156      -0.262633       0.034281       0.964287
ITEM: TIMESTEP
1300
ITEM: NUMBER OF ATOMS
5
ITEM: BOX BOUNDS ff ff ff
-5.00000000    5.00000000     
-5.00000000    5.00000000     
-5.00000000    5.00000000     
ITEM: ATOMS id type q x y z mux muy muz
      1   1    1.0000       1.134323       1.242199       1.767725      -0.383720       0.856626       0.344892
      2   2   -1.0000      -4.562113       0.604696      -0.205574      -0.120761       0.946057      -0.300653
      3   1    1.0000      -3.195266      -2.887910      -1.820745       0.505416      -0.862595       0.022025
      4   2   -1.0000       1.849882       0.937050       3.856059       0.431221       0.725936      -0.535784
      5   2   -1.0000      -1.479008       3.762243       2.528084      -0.017497       0.175103       0.984395
ITEM: TIMESTEP
1400
ITEM: NUMBER OF ATOMS
5
ITEM: BOX BOUNDS ff ff ff
-5.00000000    5.00000000     
-5.00000000    5.00000000     
-5.00000000    5.00000000     
ITEM: ATOMS id type q x y z mux muy muz
      1   1    1.0000       1.110988       1.267225       1.789431      -0.433744       0.787047       0.438660
      2   2   -1.0000      -4.548576       0.610236      -0.292836      -0.115922       0.956824      -0.266551
      3   1    1.0000      -3.216237      -2.883350      -1.788360       0.517364      -0.852817       0.070980
      4   2   -1.0000       1.833952       0.930496       3.884422       0.482720       0.732066      -0.480687
      5   2   -1.0000      -1.432309       3.733671       2.532891       0.220824       0.303473       0.926898
ITEM: TIMESTEP
1500
ITEM: NUMBER OF ATOMS
5
ITEM: BOX BOUNDS ff ff ff
-5.00000000    5.00000000     
-5.00000000    5.00000000     
-5.00000000    5.00000000     
ITEM: ATOMS id type q x y z mux muy muz
      1   1    1.0000       1.086445       1.291661       1.811900      -0.480034       0.699426       0.529501
      2   2   -1.0000      -4.535043       0.615127      -0.379759      -0.110288       0.966945      -0.229898
      3   1    1.0000      -3.237253      -2.878344      -1.756004       0.528592      -0.839932       0.122904
      4   2   -1.0000       1.818522       0.924891       3.911778       0.539799       0.732453      -0.414885
      5   2   -1.0000      -1.384853       3.704943       2.537633       0.433703       0.411085       0.801817
ITEM: TIMESTEP
1600
ITEM: NUMBER OF ATOMS
5
ITEM: BOX BOUNDS ff ff ff
-5.00000000    5.00000000     
-5.00000000    5.00000000     
-5.00000000    5.00000000     
ITEM: ATOMS id type q x y z mux muy muz
      1   1    1.0000       1.060768       1.315312       1.835404      -0.519830       0.593759       0.614188
      2   2   -1.0000      -4.521496       0.619350      -0.466359      -0.103974       0.976078      -0.190949
      3   1    1.0000      -3.258331      -2.872867      -1.723687       0.538946      -0.823388       0.177680
      4   2   -1.0000       1.803510       0.920371       3.937847       0.600985       0.724900      -0.336655
      5   2   -1.0000      -1.336632       3.676112       2.542343       0.606823       0.492506       0.623861
ITEM: TIMESTEP
1700
ITEM: NUMBER OF ATOMS
5
ITEM: BOX BOUNDS ff ff ff
-5.00000000    5.00000000     
-5.00000000    5.00000000     
-5.00000000    5.00000000     
ITEM: ATOMS id type q x y z mux muy muz
      1   1    1.0000       1.034079       1.337983       1.860306      -0.550106       0.471361       0.689349
      2   2   -1.0000      -4.507912       0.622892      -0.552645      -0.097171       0.983880      -0.150124
      3   1    1.0000      -3.279492      -2.866894      -1.691421       0.548214      -0.802633       0.235036
      4   2   -1.0000       1.788798       0.917066       3.962290       0.663682       0.706873      -0.244657
      5   2   -1.0000      -1.287655       3.647232       2.547019       0.731014       0.545301       0.410202
ITEM: TIMESTEP
1800
ITEM: NUMBER OF ATOMS
5
ITEM: BOX BOUNDS ff ff ff
-5.00000000    5.00000000     
-5.00000000    5.00000000     
-5.00000000    5.00000000     
ITEM: ATOMS id type q x y z mux muy muz
      1   1    1.0000       1.006555       1.359501       1.887056      -0.567852       0.335090       0.751837
      2   2   -1.0000      -4.494268       0.625745      -0.638609      -0.090124       0.990058      -0.107991
      3   1    1.0000      -3.300753      -2.860403      -1.659228       0.556148      -0.777132       0.294559
      4   2   -1.0000       1.774234       0.915092       3.984703       0.724058       0.675722      -0.138344
      5   2   -1.0000      -1.237951       3.618342       2.551627       0.802284       0.569706       0.178257
ITEM: TIMESTEP
1900
ITEM: NUMBER OF ATOMS
5
ITEM: BOX BOUNDS ff ff ff
-5.00000000    5.00000000     
-5.00000000    5.00000000     
-5.00000000    5.00000000     
ITEM: ATOMS id type q x y z mux muy muz
      1   1    1.0000       0.978444       1.379735       1.916178      -0.570452       0.189346       0.799207
      2   2   -1.0000      -4.480542       0.627901      -0.724205      -0.083105       0.994406      -0.065198
      3   1    1.0000      -3.322124      -2.853370      -1.627140       0.562480      -0.746369       0.355738
      4   2   -1.0000       1.759619       0.914541       4.004617       0.777151       0.629045      -0.018397
      5   2   -1.0000      -1.187579       3.589471       2.556100       0.821127       0.567980      -0.056112
ITEM: TIMESTEP
2000
ITEM: NUMBER OF ATOMS
5
ITEM: BOX BOUNDS ff ff ff
-5.00000000    5.00000000     
-5.00000000    5.00000000     
-5.00000000    5.00000000     
ITEM: ATOMS id type q x y z mux muy muz
      1   1    1.0000       0.950066       1.398608       1.948253      -0.556050       0.039786       0.830196
      2   2   -1.0000      -4.466718       0.629353      -0.809342      -0.076381       0.996827      -0.022405
      3   1    1.0000      -3.343609      -2.845780      -1.595212       0.566928      -0.709824       0.418023
      4   2   -1.0000       1.744710       0.915464       4.021500       0.817218       0.565156       0.112927
      5   2   -1.0000      -1.136631       3.560632       2.560350       0.791360       0.543600      -0.279729
ITEM: TIMESTEP
2100
ITEM: NUMBER OF ATOMS
5
ITEM: BOX BOUNDS ff ff ff
-5.00000000    5.00000000     
-5.00000000    5.00000000     
-5.00000000    5.00000000     
ITEM: ATOMS id type q x y z mux muy muz
      1   1    1.0000       0.921826       1.416117       1.983883      -0.523793      -0.107218       0.845071
      2   2   -1.0000      -4.452791       0.630093      -0.893862      -0.070195       0.997337       0.019787
      3   1    1.0000      -3.365194      -2.837618      -1.563522       0.569193      -0.666929       0.480860
      4   2   -1.0000       1.729225       0.917861       4.034772       0.838354       0.483562       0.251657
      5   2   -1.0000      -1.085248       3.531825       2.564278       0.718837       0.500500      -0.482465
ITEM: TIMESTEP
2200
ITEM: NUMBER OF ATOMS
5
ITEM: BOX BOUNDS ff ff ff
-5.00000000    5.00000000     
-5.00000000    5.00000000     
-5.00000000    5.00000000     
ITEM: ATOMS id type q x y z mux muy muz
      1   1    1.0000       0.894216       1.432331       2.023651      -0.473876      -0.245241       0.845753
      2   2   -1.0000      -4.438766       0.630112      -0.977536      -0.064747       0.996043       0.060875
      3   1    1.0000      -3.386849      -2.828881      -1.532178       0.568934      -0.617013       0.543700
      4   2   -1.0000       1.712843       0.921667       4.043816       0.835254       0.385342       0.392252
      5   2   -1.0000      -1.033626       3.503048       2.567795       0.610376       0.442507      -0.656985
ITEM: TIMESTEP
2300
ITEM: NUMBER OF ATOMS
5
ITEM: BOX BOUNDS ff ff ff
-5.00000000    5.00000000     
-5.00000000    5.00000000     
-5.00000000    5.00000000     
ITEM: ATOMS id type q x y z mux muy muz
      1   1    1.0000       0.867812       1.447390       2.068084      -0.407364      -0.368410       0.835661
      2   2   -1.0000      -4.424667       0.629402      -1.060049      -0.060195       0.993118       0.100463
      3   1    1.0000      -3.408519      -2.819573      -1.501321       0.565730      -0.559255       0.605956
      4   2   -1.0000       1.695220       0.926754       4.048002       0.804037       0.273350       0.528019
      5   2   -1.0000      -0.982028       3.474304       2.570832       0.473056       0.373044      -0.798158
ITEM: TIMESTEP
2400
ITEM: NUMBER OF ATOMS
5
ITEM: BOX BOUNDS ff ff ff
-5.00000000    5.00000000     
-5.00000000    5.00000000     
-5.00000000    5.00000000     
ITEM: ATOMS id type q x y z mux muy muz
      1   1    1.0000       0.843280       1.461479       2.117612      -0.325849      -0.471756       0.819310
      2   2   -1.0000      -4.410534       0.627953      -1.141007      -0.056661       0.988777       0.138238
      3   1    1.0000      -3.430130      -2.809710      -1.471124       0.559035      -0.492662       0.666907
      4   2   -1.0000       1.675991       0.932933       4.046704       0.742978       0.152172       0.651788
      5   2   -1.0000      -0.930790       3.445623       2.573364       0.313939       0.295068      -0.902428
ITEM: TIMESTEP
2500
ITEM: NUMBER OF ATOMS
5
ITEM: BOX BOUNDS ff ff ff
-5.00000000    5.00000000     
-5.00000000    5.00000000     
-5.00000000    5.00000000     
ITEM: ATOMS id type q x y z mux muy muz
      1   1    1.0000       0.821365       1.474787       2.172546      -0.231063      -0.551235       0.801717
      2   2   -1.0000      -4.396425       0.625763      -1.219928      -0.054237       0.983264       0.173926
      3   1    1.0000      -3.451576      -2.799320      -1.441795       0.548133      -0.416108       0.725537
      4   2   -1.0000       1.654774       0.939976       4.039310       0.653102       0.027862       0.756758
      5   2   -1.0000      -0.880320       3.417072       2.575417       0.140106       0.211178      -0.967354
ITEM: TIMESTEP
2600
ITEM: NUMBER OF ATOMS
5
ITEM: BOX BOUNDS ff ff ff
-5.00000000    5.00000000     
-5.00000000    5.00000000     
-5.00000000    5.00000000     
ITEM: ATOMS id type q x y z mux muy muz
      1   1    1.0000       0.802901       1.487455       2.233060      -0.124583      -0.603402       0.787645
      2   2   -1.0000      -4.382424       0.622831      -1.296246      -0.052991       0.976854       0.207239
      3   1    1.0000      -3.472726      -2.788449      -1.413573       0.532117      -0.328459       0.780363
      4   2   -1.0000       1.631164       0.947655       4.025234       0.538577      -0.092582       0.837475
      5   2   -1.0000      -0.831097       3.388786       2.577074      -0.041152       0.123783      -0.991456
ITEM: TIMESTEP
2700
ITEM: NUMBER OF ATOMS
5
ITEM: BOX BOUNDS ff ff ff
-5.00000000    5.00000000     
-5.00000000    5.00000000     
-5.00000000    5.00000000     
ITEM: ATOMS id type q x y z mux muy muz
      1   1    1.0000       0.788816       1.499495       2.299192      -0.007814      -0.624862       0.780696
      2   2   -1.0000      -4.368636       0.619167      -1.369300      -0.052974       0.969862       0.237828
      3   1    1.0000      -3.493412      -2.777161      -1.386731       0.509907      -0.228813       0.829240
      4   2   -1.0000       1.604717       0.955788       4.003911       0.406836      -0.202004       0.890887
      5   2   -1.0000      -0.783668       3.360989       2.578477      -0.222168       0.035275      -0.974370
ITEM: TIMESTEP
2800
ITEM: NUMBER OF ATOMS
5
ITEM: BOX BOUNDS ff ff ff
-5.00000000    5.00000000     
-5.00000000    5.00000000     
-5.00000000    5.00000000     
ITEM: ATOMS id type q x y z mux muy muz
      1   1    1.0000       0.780154       1.510689       2.370847       0.117581      -0.611798       0.782226
      2   2   -1.0000      -4.355202       0.614794      -1.438312      -0.054204       0.962652       0.265261
      3   1    1.0000      -3.513422      -2.765548      -1.361585       0.480336      -0.116851       0.869266
      4   2   -1.0000       1.574925       0.964321       3.974791       0.268313      -0.294147       0.917325
      5   2   -1.0000      -0.738637       3.334021       2.579807      -0.394935      -0.051889      -0.917243
ITEM: TIMESTEP
2900
ITEM: NUMBER OF ATOMS
5
ITEM: BOX BOUNDS ff ff ff
-5.00000000    5.00000000     
-5.00000000    5.00000000     
-5.00000000    5.00000000     
ITEM: ATOMS id type q x y z mux muy muz
      1   1    1.0000       0.778088       1.520464       2.447800       0.248721      -0.560089       0.790214
      2   2   -1.0000      -4.342307       0.609760      -1.502359      -0.056660       0.955642       0.289028
      3   1    1.0000      -3.532486      -2.753743      -1.338497       0.442331       0.006728       0.896827
      4   2   -1.0000       1.541191       0.973431       3.937346       0.135693      -0.364901       0.921105
      5   2   -1.0000      -0.696668       3.308365       2.581259      -0.551477      -0.135236      -0.823155
ITEM: TIMESTEP
3000
ITEM: NUMBER OF ATOMS
5
ITEM: BOX BOUNDS ff ff ff
-5.00000000    5.00000000     
-5.00000000    5.00000000     
-5.00000000    5.00000000     
ITEM: ATOMS id type q x y z mux muy muz
      1   1    1.0000       0.783935       1.527720       2.529695       0.380164      -0.466770       0.798499
      2   2   -1.0000      -4.330190       0.604150      -1.560333      -0.060267       0.949284       0.308589
      3   1    1.0000      -3.550254      -2.741940      -1.317886       0.395148       0.139858       0.907908
      4   2   -1.0000       1.502810       0.983696       3.891078       0.022765      -0.413458       0.910239
      5   2   -1.0000      -0.658483       3.284651       2.582995      -0.684585      -0.212454      -0.697286
ITEM: TIMESTEP
3100
ITEM: NUMBER OF ATOMS
5
ITEM: BOX BOUNDS ff ff ff
-5.00000000    5.00000000     
-5.00000000    5.00000000     
-5.00000000    5.00000000     
ITEM: ATOMS id type q x y z mux muy muz
      1   1    1.0000       0.799140       1.530575       2.616074       0.502978      -0.333468       0.797379
      2   2   -1.0000      -4.319161       0.598119      -1.610927      -0.064891       0.944017       0.323453
      3   1    1.0000      -3.566286      -2.730426      -1.300221       0.338586       0.279041       0.898608
      4   2   -1.0000       1.458987       0.996371       3.835533      -0.056720      -0.442981       0.894735
      5   2   -1.0000      -0.624863       3.263638       2.585090      -0.788687      -0.281645      -0.546487
ITEM: TIMESTEP
3200
ITEM: NUMBER OF ATOMS
5
ITEM: BOX BOUNDS ff ff ff
-5.00000000    5.00000000     
-5.00000000    5.00000000     
-5.00000000    5.00000000     
ITEM: ATOMS id type q x y z mux muy muz
      1   1    1.0000       0.825193       1.525927       2.706534       0.605656      -0.171727       0.776975
      2   2   -1.0000      -4.309600       0.591913      -1.652685      -0.070357       0.940208       0.333255
      3   1    1.0000      -3.580045      -2.719605      -1.285995       0.272982       0.419791       0.865596
      4   2   -1.0000       1.408917       1.013896       3.770213      -0.089542      -0.460493       0.883136
      5   2   -1.0000      -0.596647       3.246146       2.587482      -0.860462      -0.341556      -0.378079
ITEM: TIMESTEP
3300
ITEM: NUMBER OF ATOMS
5
ITEM: BOX BOUNDS ff ff ff
-5.00000000    5.00000000     
-5.00000000    5.00000000     
-5.00000000    5.00000000     
ITEM: ATOMS id type q x y z mux muy muz
      1   1    1.0000       0.863490       1.508456       2.801476       0.678271      -0.009389       0.734752
      2   2   -1.0000      -4.301932       0.585914      -1.684197      -0.076497       0.938107       0.337792
      3   1    1.0000      -3.590951      -2.710026      -1.275632       0.198798       0.557549       0.805989
      4   2   -1.0000       1.351910       1.040999       3.693956      -0.062623      -0.476144       0.877135
      5   2   -1.0000      -0.574699       3.232935       2.589946      -0.898555      -0.391705      -0.197903
ITEM: TIMESTEP
3400
ITEM: NUMBER OF ATOMS
5
ITEM: BOX BOUNDS ff ff ff
-5.00000000    5.00000000     
-5.00000000    5.00000000     
-5.00000000    5.00000000     
ITEM: ATOMS id type q x y z mux muy muz
      1   1    1.0000       0.894730       1.488489       2.867270       0.718253       0.100334       0.688510
      2   2   -1.0000      -4.296547       0.580657      -1.704536      -0.083212       0.937852       0.336912
      3   1    1.0000      -3.598491      -2.702356      -1.269321       0.115879       0.688263       0.716147
      4   2   -1.0000       1.307901       1.066960       3.640024       0.036416      -0.502082       0.864053
      5   2   -1.0000      -0.559775       3.224527       2.592112      -0.901721      -0.432236      -0.008374
ITEM: TIMESTEP
3500
ITEM: NUMBER OF ATOMS
5
ITEM: BOX BOUNDS ff ff ff
-5.00000000    5.00000000     
-5.00000000    5.00000000     
-5.00000000    5.00000000     
ITEM: ATOMS id type q x y z mux muy muz
      1   1    1.0000       0.856549       1.538000       2.814225       0.726460       0.102087       0.679584
      2   2   -1.0000      -4.277294       0.558969      -1.772741      -0.090301       0.939540       0.330319
      3   1    1.0000      -3.625148      -2.672288      -1.249215       0.026012       0.804029       0.594021
      4   2   -1.0000       1.301195       1.036724       3.732528       0.190590      -0.538745       0.820627
      5   2   -1.0000      -0.507485       3.196873       2.600752      -0.867297      -0.461980       0.185390
ITEM: TIMESTEP
3600
ITEM: NUMBER OF ATOMS
5
ITEM: BOX BOUNDS ff ff ff
-5.00000000    5.00000000     
-5.00000000    5.00000000     
-5.00000000    5.00000000     
ITEM: ATOMS id type q x y z mux muy muz
      1   1    1.0000       0.833020       1.554835       2.797075       0.697877       0.026195       0.715738
      2   2   -1.0000      -4.262422       0.540918      -1.823685      -0.097016       0.943045       0.318203
      3   1    1.0000      -3.645625      -2.647856      -1.234673      -0.060868       0.890277       0.451334
      4   2   -1.0000       1.290107       1.033989       3.779168       0.337083      -0.564459       0.753499
      5   2   -1.0000      -0.467261       3.176391       2.607664      -0.799846      -0.478267       0.362640
ITEM: TIMESTEP
3700
ITEM: NUMBER OF ATOMS
5
ITEM: BOX BOUNDS ff ff ff
-5.00000000    5.00000000     
-5.00000000    5.00000000     
-5.00000000    5.00000000     
ITEM: ATOMS id type q x y z mux muy muz
      1   1    1.0000       0.815438       1.544923       2.824861       0.623750      -0.091320       0.776271
      2   2   -1.0000      -4.241563       0.513663      -1.892846      -0.102988       0.948133       0.300727
      3   1    1.0000      -3.674206      -2.611767      -1.215632      -0.140068       0.944558       0.296969
      4   2   -1.0000       1.259191       1.062531       3.791587       0.450550      -0.571680       0.685702
      5   2   -1.0000      -0.411042       3.148927       2.617579      -0.707094      -0.483467       0.516022
ITEM: TIMESTEP
3800
ITEM: NUMBER OF ATOMS
5
ITEM: BOX BOUNDS ff ff ff
-5.00000000    5.00000000     
-5.00000000    5.00000000     
-5.00000000    5.00000000     
ITEM: ATOMS id type q x y z mux muy muz
      1   1    1.0000       0.812694       1.511567       2.896203       0.497291      -0.225415       0.837788
      2   2   -1.0000      -4.222788       0.487399      -1.953347      -0.107911       0.954553       0.277818
      3   1    1.0000      -3.699833      -2.577635      -1.199597      -0.209080       0.968198       0.137399
      4   2   -1.0000       1.218527       1.111491       3.755774       0.523966      -0.557934       0.643560
      5   2   -1.0000      -0.360781       3.125454       2.626517      -0.594544      -0.481546       0.643918
ITEM: TIMESTEP
3900
ITEM: NUMBER OF ATOMS
5
ITEM: BOX BOUNDS ff ff ff
-5.00000000    5.00000000     
-5.00000000    5.00000000     
-5.00000000    5.00000000     
ITEM: ATOMS id type q x y z mux muy muz