ITEM: TIMESTEP
0
ITEM: NUMBER OF ATOMS
5
ITEM: BOX BOUNDS ff ff ff
-5.00000000    5.00000000     
-5.00000000    5.00000000     
-5.00000000    5.00000000     
ITEM: ATOMS id type q x y z mux muy muz
      1   1    1.0000       2.640347      -4.162277      -3.392951       0.219404       0.527897      -0.820479
      2   2   -1.0000       2.332965      -0.686101      -0.540480       0.525175      -0.698800       0.485665
      3   1    1.0000      -1.913958       1.073662      -3.148398       0.715929      -0.692582      -0.088180
      4   2   -1.0000       1.268627      -3.261891      -4.361523       0.173048      -0.711653       0.680885
      5   2   -1.0000      -1.696561      -2.688698       3.889988       0.458104       0.233557      -0.857667
ITEM: TIMESTEP
100
ITEM: NUMBER OF ATOMS
5
ITEM: BOX BOUNDS ff ff ff
-5.00000000    5.00000000     
-5.00000000    5.00000000     
-5.00000000    5.00000000     
ITEM: ATOMS id type q x y z mux muy muz
      1   1    1.0000       2.619753      -4.197593      -3.404166       0.039474       0.642661      -0.765133
      2   2   -1.0000       2.424542      -0.661626      -0.553947       0.538062      -0.689358       0.485052
      3   1    1.0000      -1.917135       1.083310      -3.153138       0.721426      -0.688743      -0.071955
      4   2   -1.0000       1.214604      -3.250502      -4.339289       0.166560      -0.711040       0.683139
      5   2   -1.0000      -1.710344      -2.698894       3.897176       0.460913       0.238604      -0.854768
ITEM: TIMESTEP
200
ITEM: NUMBER OF ATOMS
5
ITEM: BOX BOUNDS ff ff ff
-5.00000000    5.00000000     
-5.00000000    5.00000000     
-5.00000000    5.00000000     
ITEM: ATOMS id type q x y z mux muy muz
      1   1    1.0000       2.599797      -4.231307      -3.416516      -0.139486       0.729217      -0.669915
      2   2   -1.0000       2.515992      -0.637071      -0.567787       0.547473      -0.680647       0.486820
      3   1    1.0000      -1.919724       1.092611      -3.157588       0.726002      -0.685275      -0.057608
      4   2   -1.0000       1.159551      -3.240414      -4.315857       0.133266      -0.711665       0.689763
      5   2   -1.0000      -1.724196      -2.709124       3.904383       0.463485       0.242561      -0.852259
ITEM: TIMESTEP
300
ITEM: NUMBER OF ATOMS
5
ITEM: BOX BOUNDS ff ff ff
-5.00000000    5.00000000     
-5.00000000    5.00000000     
-5.00000000    5.00000000     
ITEM: ATOMS id type q x y z mux muy muz
      1   1    1.0000       2.580539      -4.263356      -3.430017      -0.307340       0.782689      -0.541240
      2   2   -1.0000       2.607250      -0.612487      -0.581981       0.554457      -0.672376       0.490395
      3   1    1.0000      -1.921734       1.101572      -3.161768       0.729892      -0.682090      -0.044839
      4   2   -1.0000       1.103472      -3.231654      -4.291196       0.079317      -0.711685       0.698007
      5   2   -1.0000      -1.738107      -2.719381       3.911598       0.465900       0.245704      -0.850039
ITEM: TIMESTEP
400
ITEM: NUMBER OF ATOMS
5
ITEM: BOX BOUNDS ff ff ff
-5.00000000    5.00000000     
-5.00000000    5.00000000     
-5.00000000    5.00000000     
ITEM: ATOMS id type q x y z mux muy muz
      1   1    1.0000       2.561950      -4.293645      -3.444760      -0.455683       0.801316      -0.387615
      2   2   -1.0000       2.698261      -0.587914      -0.596507       0.559837      -0.664295       0.495272
      3   1    1.0000      -1.923173       1.110201      -3.165696       0.733289      -0.679097      -0.033378
      4   2   -1.0000       1.046449      -3.224291      -4.265212       0.009315      -0.708904       0.705243
      5   2   -1.0000      -1.752067      -2.729656       3.918811       0.468223       0.248258      -0.848019
ITEM: TIMESTEP
500
ITEM: NUMBER OF ATOMS
5
ITEM: BOX BOUNDS ff ff ff
-5.00000000    5.00000000     
-5.00000000    5.00000000     
-5.00000000    5.00000000     
ITEM: ATOMS id type q x y z mux muy muz
      1   1    1.0000       2.543937      -4.322047      -3.460878      -0.578194       0.786056      -0.218647
      2   2   -1.0000       2.788976      -0.563387      -0.611335       0.564220      -0.656233       0.501013
      3   1    1.0000      -1.924048       1.118508      -3.169391       0.736341      -0.676219      -0.023009
      4   2   -1.0000       0.988623      -3.218433      -4.237770      -0.072999      -0.701229       0.709189
      5   2   -1.0000      -1.766068      -2.739947       3.926010       0.470499       0.250394      -0.846129
ITEM: TIMESTEP
600
ITEM: NUMBER OF ATOMS
5
ITEM: BOX BOUNDS ff ff ff
-5.00000000    5.00000000     
-5.00000000    5.00000000     
-5.00000000    5.00000000     
ITEM: ATOMS id type q x y z mux muy muz
      1   1    1.0000       2.526350      -4.348421      -3.478525      -0.670910       0.740222      -0.044177
      2   2   -1.0000       2.879350      -0.538933      -0.626434       0.568032      -0.648105       0.507246
      3   1    1.0000      -1.924365       1.126502      -3.172871       0.739158      -0.673396      -0.013567
      4   2   -1.0000       0.930187      -3.214207      -4.208722      -0.164214      -0.686889       0.707967
      5   2   -1.0000      -1.780101      -2.750247       3.933188       0.472760       0.252241      -0.844318
ITEM: TIMESTEP
700
ITEM: NUMBER OF ATOMS
5
ITEM: BOX BOUNDS ff ff ff
-5.00000000    5.00000000     
-5.00000000    5.00000000     
-5.00000000    5.00000000     
ITEM: ATOMS id type q x y z mux muy muz
      1   1    1.0000       2.509006      -4.372617      -3.497855      -0.732386       0.669027       0.126542
      2   2   -1.0000       2.969335      -0.514569      -0.641766       0.571560      -0.639904       0.513656
      3   1    1.0000      -1.924126       1.134191      -3.176152       0.741819      -0.670582      -0.004927
      4   2   -1.0000       0.871366      -3.211759      -4.177925      -0.260951      -0.664593       0.700157
      5   2   -1.0000      -1.794159      -2.760551       3.940334       0.475026       0.253894      -0.842549
ITEM: TIMESTEP
800
ITEM: NUMBER OF ATOMS
5
ITEM: BOX BOUNDS ff ff ff
-5.00000000    5.00000000     
-5.00000000    5.00000000     
-5.00000000    5.00000000     
ITEM: ATOMS id type q x y z mux muy muz
      1   1    1.0000       2.491697      -4.394486      -3.518999      -0.763655       0.579029       0.285581
      2   2   -1.0000       3.058879      -0.490310      -0.657293       0.574973      -0.631683       0.519984
      3   1    1.0000      -1.923337       1.141578      -3.179248       0.744378      -0.667752       0.003008
      4   2   -1.0000       0.812413      -3.211231      -4.145265      -0.359752      -0.633657       0.684878
      5   2   -1.0000      -1.808232      -2.770855       3.947441       0.477306       0.255418      -0.840797
ITEM: TIMESTEP
900
ITEM: NUMBER OF ATOMS
5
ITEM: BOX BOUNDS ff ff ff
-5.00000000    5.00000000     
-5.00000000    5.00000000     
-5.00000000    5.00000000     
ITEM: ATOMS id type q x y z mux muy muz
      1   1    1.0000       2.474205      -4.413893      -3.542056      -0.767966       0.477481       0.426897
      2   2   -1.0000       3.147926      -0.466166      -0.672975       0.578358      -0.623538       0.526024
      3   1    1.0000      -1.922000       1.148668      -3.182169       0.746869      -0.664892       0.010314
      4   2   -1.0000       0.753597      -3.212762      -4.110663      -0.457157      -0.594091       0.661863
      5   2   -1.0000      -1.822308      -2.781151       3.954498       0.479603       0.256857      -0.839050
ITEM: TIMESTEP
1000
ITEM: NUMBER OF ATOMS
5
ITEM: BOX BOUNDS ff ff ff
-5.00000000    5.00000000     
-5.00000000    5.00000000     
-5.00000000    5.00000000     
ITEM: ATOMS id type q x y z mux muy muz
      1   1    1.0000       2.456314      -4.430717      -3.567083      -0.750346       0.371702       0.546643
      2   2   -1.0000       3.236411      -0.442145      -0.688773       0.581734      -0.615596       0.531627
      3   1    1.0000      -1.920121       1.155461      -3.184922       0.749307      -0.662003       0.017054
      4   2   -1.0000       0.695192      -3.216473      -4.074084      -0.549894      -0.546637       0.631510
      5   2   -1.0000      -1.836376      -2.791431       3.961498       0.481913       0.258235      -0.837302
ITEM: TIMESTEP
1100
ITEM: NUMBER OF ATOMS
5
ITEM: BOX BOUNDS ff ff ff
-5.00000000    5.00000000     
-5.00000000    5.00000000     
-5.00000000    5.00000000     
ITEM: ATOMS id type q x y z mux muy muz
      1   1    1.0000       2.437809      -4.444856      -3.594094      -0.717044       0.268528       0.643227
      2   2   -1.0000       3.324269      -0.418252      -0.704648       0.585073      -0.607990       0.536691
      3   1    1.0000      -1.917706       1.161959      -3.187514       0.751694      -0.659101       0.023278
      4   2   -1.0000       0.637470      -3.222469      -4.035540      -0.635142      -0.492692       0.594852
      5   2   -1.0000      -1.850422      -2.801687       3.968433       0.484226       0.259563      -0.835555
ITEM: TIMESTEP
1200
ITEM: NUMBER OF ATOMS
5
ITEM: BOX BOUNDS ff ff ff
-5.00000000    5.00000000     
-5.00000000    5.00000000     
-5.00000000    5.00000000     
ITEM: ATOMS id type q x y z mux muy muz
      1   1    1.0000       2.418482      -4.456224      -3.623062      -0.674926       0.173898       0.717101
      2   2   -1.0000       3.411429      -0.394495      -0.720569       0.588323      -0.600847       0.541165
      3   1    1.0000      -1.914764       1.168160      -3.189945       0.754020      -0.656209       0.029030
      4   2   -1.0000       0.580706      -3.230838      -3.995082      -0.710791      -0.434147       0.553438
      5   2   -1.0000      -1.864433      -2.811908       3.975294       0.486529       0.260838      -0.833819
ITEM: TIMESTEP
1300
ITEM: NUMBER OF ATOMS
5
ITEM: BOX BOUNDS ff ff ff
-5.00000000    5.00000000     
-5.00000000    5.00000000     
-5.00000000    5.00000000     
ITEM: ATOMS id type q x y z mux muy muz
      1   1    1.0000       2.398128      -4.464748      -3.653921      -0.630886       0.092614       0.770328
      2   2   -1.0000       3.497826      -0.370881      -0.736505       0.591415      -0.594270       0.545043
      3   1    1.0000      -1.911307       1.174064      -3.192216       0.756268      -0.653360       0.034353
      4   2   -1.0000       0.525169      -3.241657      -3.952798      -0.775613      -0.373120       0.509123
      5   2   -1.0000      -1.878396      -2.822084       3.982076       0.488804       0.262051      -0.832106
ITEM: TIMESTEP
1400
ITEM: NUMBER OF ATOMS
5
ITEM: BOX BOUNDS ff ff ff
-5.00000000    5.00000000     
-5.00000000    5.00000000     
-5.00000000    5.00000000     
ITEM: ATOMS id type q x y z mux muy muz
      1   1    1.0000       2.376533      -4.470360      -3.686574      -0.591295       0.028272       0.805960
      2   2   -1.0000       3.583393      -0.347417      -0.752434       0.594289      -0.588326       0.548355
      3   1    1.0000      -1.907347       1.179672      -3.194325       0.758416      -0.650586       0.039285
      4   2   -1.0000       0.471140      -3.254996      -3.908804      -0.829306      -0.311664       0.463807
      5   2   -1.0000      -1.892298      -2.832205       3.988772       0.491037       0.263188      -0.830431
ITEM: TIMESTEP
1500
ITEM: NUMBER OF ATOMS
5
ITEM: BOX BOUNDS ff ff ff
-5.00000000    5.00000000     
-5.00000000    5.00000000     
-5.00000000    5.00000000     
ITEM: ATOMS id type q x y z mux muy muz
      1   1    1.0000       2.353464      -4.472987      -3.720897      -0.561540      -0.016651       0.827282
      2   2   -1.0000       3.668069      -0.324112      -0.768338       0.596896      -0.583040       0.551162
      3   1    1.0000      -1.902902       1.184984      -3.196268       0.760445      -0.647919       0.043869
      4   2   -1.0000       0.418917      -3.270929      -3.863238      -0.872371      -0.251496       0.419188
      5   2   -1.0000      -1.906128      -2.842261       3.995377       0.493213       0.264235      -0.828807
ITEM: TIMESTEP
1600
ITEM: NUMBER OF ATOMS
5
ITEM: BOX BOUNDS ff ff ff
-5.00000000    5.00000000     
-5.00000000    5.00000000     
-5.00000000    5.00000000     
ITEM: ATOMS id type q x y z mux muy muz
      1   1    1.0000       2.328658      -4.472549      -3.756739      -0.545637      -0.040610       0.837037
      2   2   -1.0000       3.751794      -0.300977      -0.784202       0.599212      -0.578391       0.553542
      3   1    1.0000      -1.897990       1.190002      -3.198042       0.762343      -0.645379       0.048152
      4   2   -1.0000       0.368831      -3.289539      -3.816267      -0.905877      -0.193827       0.376587
      5   2   -1.0000      -1.919873      -2.852242       4.001886       0.495324       0.265180      -0.827245
ITEM: TIMESTEP
1700
ITEM: NUMBER OF ATOMS
5
ITEM: BOX BOUNDS ff ff ff
-5.00000000    5.00000000     
-5.00000000    5.00000000     
-5.00000000    5.00000000     
ITEM: ATOMS id type q x y z mux muy muz
      1   1    1.0000       2.301801      -4.468946      -3.793914      -0.545936      -0.042791       0.836733
      2   2   -1.0000       3.834511      -0.278026      -0.800018       0.601235      -0.574324       0.555580
      3   1    1.0000      -1.892632       1.194731      -3.199641       0.764105      -0.642978       0.052185
      4   2   -1.0000       0.321265      -3.310926      -3.768086      -0.931175      -0.139327       0.336900
      5   2   -1.0000      -1.933523      -2.862138       4.008295       0.497368       0.266017      -0.825748
ITEM: TIMESTEP
1800
ITEM: NUMBER OF ATOMS
5
ITEM: BOX BOUNDS ff ff ff
-5.00000000    5.00000000     
-5.00000000    5.00000000     
-5.00000000    5.00000000     
ITEM: ATOMS id type q x y z mux muy muz
      1   1    1.0000       2.272518      -4.462067      -3.832190      -0.562881      -0.023032       0.826217
      2   2   -1.0000       3.916154      -0.255274      -0.815777       0.602983      -0.570757       0.557359
      3   1    1.0000      -1.886852       1.199177      -3.201062       0.765732      -0.640715       0.056024
      4   2   -1.0000       0.276668      -3.335202      -3.718934      -0.949643      -0.088210       0.300663
      5   2   -1.0000      -1.947068      -2.871939       4.014600       0.499350       0.266741      -0.824317
ITEM: TIMESTEP
1900
ITEM: NUMBER OF ATOMS
5
ITEM: BOX BOUNDS ff ff ff
-5.00000000    5.00000000     
-5.00000000    5.00000000     
-5.00000000    5.00000000     
ITEM: ATOMS id type q x y z mux muy muz
      1   1    1.0000       2.240369      -4.451794      -3.871269      -0.594827       0.018052       0.803651
      2   2   -1.0000       3.996657      -0.232739      -0.831474       0.604487      -0.567600       0.558951
      3   1    1.0000      -1.880675       1.203348      -3.202298       0.767237      -0.638577       0.059726
      4   2   -1.0000       0.235564      -3.362486      -3.669117      -0.962521      -0.040390       0.268183
      5   2   -1.0000      -1.960495      -2.881634       4.020794       0.501281       0.267352      -0.822946
ITEM: TIMESTEP
2000
ITEM: NUMBER OF ATOMS
5
ITEM: BOX BOUNDS ff ff ff
-5.00000000    5.00000000     
-5.00000000    5.00000000     
-5.00000000    5.00000000     
ITEM: ATOMS id type q x y z mux muy muz
      1   1    1.0000       2.204845      -4.438016      -3.910765      -0.637992       0.078719       0.766009
      2   2   -1.0000       4.075940      -0.210444      -0.847101       0.605785      -0.564764       0.560416
      3   1    1.0000      -1.874130       1.207255      -3.203344       0.768635      -0.636543       0.063351
      4   2   -1.0000       0.198557      -3.392888      -3.619029      -0.970835       0.004331       0.239710
      5   2   -1.0000      -1.973791      -2.891212       4.026874       0.503178       0.267851      -0.821625
ITEM: TIMESTEP
2100
ITEM: NUMBER OF ATOMS
5
ITEM: BOX BOUNDS ff ff ff
-5.00000000    5.00000000     
-5.00000000    5.00000000     
-5.00000000    5.00000000     
ITEM: ATOMS id type q x y z mux muy muz
      1   1    1.0000       2.165390      -4.420665      -3.950174      -0.686702       0.155690       0.710072
      2   2   -1.0000       4.153908      -0.188414      -0.862649       0.606913      -0.562170       0.561802
      3   1    1.0000      -1.867249       1.210908      -3.204192       0.769944      -0.634589       0.066959
      4   2   -1.0000       0.166313      -3.426477      -3.569181      -0.975400       0.046105       0.215568
      5   2   -1.0000      -1.986942      -2.900657       4.032832       0.505061       0.268239      -0.820342
ITEM: TIMESTEP
2200
ITEM: NUMBER OF ATOMS
5
ITEM: BOX BOUNDS ff ff ff
-5.00000000    5.00000000     
-5.00000000    5.00000000     
-5.00000000    5.00000000     
ITEM: ATOMS id type q x y z mux muy muz
      1   1    1.0000       2.121430      -4.399738      -3.988863      -0.734077       0.243935       0.633741
      2   2   -1.0000       4.230452      -0.166680      -0.878108       0.607903      -0.559753       0.563143
      3   1    1.0000      -1.860068       1.214322      -3.204836       0.771185      -0.632683       0.070611
      4   2   -1.0000       0.139536      -3.463255      -3.520220      -0.976868       0.084921       0.196258
      5   2   -1.0000      -1.999930      -2.909954       4.038662       0.506950       0.268515      -0.819086
ITEM: TIMESTEP
2300
ITEM: NUMBER OF ATOMS
5
ITEM: BOX BOUNDS ff ff ff
-5.00000000    5.00000000     
-5.00000000    5.00000000     
-5.00000000    5.00000000     
ITEM: ATOMS id type q x y z mux muy muz
      1   1    1.0000       2.072420      -4.375344      -4.026057      -0.773190       0.336905       0.537282
      2   2   -1.0000       4.305438      -0.145278      -0.893458       0.608779      -0.557467       0.564464
      3   1    1.0000      -1.852624       1.217512      -3.205268       0.772376      -0.630798       0.074365
      4   2   -1.0000       0.118919      -3.503110      -3.472935      -0.975792       0.120535       0.182485
      5   2   -1.0000      -2.012733      -2.919085       4.044354       0.508868       0.268677      -0.817843
ITEM: TIMESTEP
2400
ITEM: NUMBER OF ATOMS
5
ITEM: BOX BOUNDS ff ff ff
-5.00000000    5.00000000     
-5.00000000    5.00000000     
-5.00000000    5.00000000     
ITEM: ATOMS id type q x y z mux muy muz
      1   1    1.0000       2.017900      -4.347726      -4.060848      -0.798482       0.427296       0.424081
      2   2   -1.0000       4.378709      -0.124249      -0.908679       0.609555      -0.555278       0.565782
      3   1    1.0000      -1.844960       1.220490      -3.205483       0.773533      -0.628903       0.078275
      4   2   -1.0000       0.105097      -3.545793      -3.428253      -0.972669       0.152455       0.175136
      5   2   -1.0000      -2.025325      -2.928028       4.049898       0.510835       0.268719      -0.816601
ITEM: TIMESTEP
2500
ITEM: NUMBER OF ATOMS
5
ITEM: BOX BOUNDS ff ff ff
-5.00000000    5.00000000     
-5.00000000    5.00000000     
-5.00000000    5.00000000     
ITEM: ATOMS id type q x y z mux muy muz
      1   1    1.0000       1.957548      -4.317291      -4.092223      -0.807069       0.508179       0.300655
      2   2   -1.0000       4.450083      -0.103642      -0.923737       0.610241      -0.553170       0.567106
      3   1    1.0000      -1.837123       1.223272      -3.205474       0.774671      -0.626975       0.082389
      4   2   -1.0000       0.098589      -3.590887      -3.387211      -0.967944       0.179964       0.175204
      5   2   -1.0000      -2.037677      -2.936757       4.055281       0.512869       0.268637      -0.815352
ITEM: TIMESTEP
2600
ITEM: NUMBER OF ATOMS
5
ITEM: BOX BOUNDS ff ff ff
-5.00000000    5.00000000     
-5.00000000    5.00000000     
-5.00000000    5.00000000     
ITEM: ATOMS id type q x y z mux muy muz
      1   1    1.0000       1.891220      -4.284605      -4.119098      -0.799621       0.574144       0.175971
      2   2   -1.0000       4.519354      -0.083515      -0.938592       0.610839      -0.551138       0.568438
      3   1    1.0000      -1.829161       1.225869      -3.205237       0.775797      -0.624993       0.086737
      4   2   -1.0000       0.099760      -3.637809      -3.350926      -0.961975       0.202165       0.183668
      5   2   -1.0000      -2.049751      -2.945246       4.060490       0.514983       0.268426      -0.814089
ITEM: TIMESTEP
2700
ITEM: NUMBER OF ATOMS
5
ITEM: BOX BOUNDS ff ff ff
-5.00000000    5.00000000     
-5.00000000    5.00000000     
-5.00000000    5.00000000     
ITEM: ATOMS id type q x y z mux muy muz
      1   1    1.0000       1.818966      -4.250392      -4.140343      -0.780592       0.622115       0.060402
      2   2   -1.0000       4.586283      -0.063933      -0.953194       0.611354      -0.549190       0.569769
      3   1    1.0000      -1.821129       1.228294      -3.204772       0.776917      -0.622944       0.091327
      4   2   -1.0000       0.108808      -3.685813      -3.320562      -0.954940       0.218052       0.201352
      5   2   -1.0000      -2.061508      -2.953461       4.065507       0.517179       0.268084      -0.812808
ITEM: TIMESTEP
2800
ITEM: NUMBER OF ATOMS
5
ITEM: BOX BOUNDS ff ff ff
-5.00000000    5.00000000     
-5.00000000    5.00000000     
-5.00000000    5.00000000     
ITEM: ATOMS id type q x y z mux muy muz
      1   1    1.0000       1.741023      -4.215512      -4.154786      -0.757817       0.651515      -0.035242
      2   2   -1.0000       4.650590      -0.044978      -0.967477       0.611791      -0.547339       0.571079
      3   1    1.0000      -1.813084       1.230554      -3.204082       0.778032      -0.620825       0.096138
      4   2   -1.0000       0.125786      -3.734004      -3.297331      -0.946739       0.226601       0.228772
      5   2   -1.0000      -2.072895      -2.961366       4.070312       0.519450       0.267617      -0.811513
ITEM: TIMESTEP
2900
ITEM: NUMBER OF ATOMS
5
ITEM: BOX BOUNDS ff ff ff
-5.00000000    5.00000000     
-5.00000000    5.00000000     
-5.00000000    5.00000000     
ITEM: ATOMS id type q x y z mux muy muz
      1   1    1.0000       1.657786      -4.180953      -4.161178      -0.741401       0.663541      -0.100192
      2   2   -1.0000       4.711918      -0.026755      -0.981350       0.612162      -0.545605       0.572340
      3   1    1.0000      -1.805098       1.232655      -3.203177       0.779140      -0.618642       0.101109
      4   2   -1.0000       0.150660      -3.781338      -3.282538      -0.936893       0.226862       0.266018
      5   2   -1.0000      -2.083846      -2.968914       4.074879       0.521776       0.267038      -0.810210
ITEM: TIMESTEP
3000
ITEM: NUMBER OF ATOMS
5
ITEM: BOX BOUNDS ff ff ff
-5.00000000    5.00000000     
-5.00000000    5.00000000     
-5.00000000    5.00000000     
ITEM: ATOMS id type q x y z mux muy muz
      1   1    1.0000       1.569782      -4.147856      -4.158069      -0.741707       0.659268      -0.123432
      2   2   -1.0000       4.769753      -0.009420      -0.994684       0.612488      -0.544009       0.573509
      3   1    1.0000      -1.797261       1.234598      -3.202075       0.780239      -0.616409       0.106146
      4   2   -1.0000       0.183414      -3.826585      -3.277705      -0.924480       0.218039       0.312724
      5   2   -1.0000      -2.094266      -2.976042       4.079169       0.524126       0.266373      -0.808911
ITEM: TIMESTEP
3100
ITEM: NUMBER OF ATOMS
5
ITEM: BOX BOUNDS ff ff ff
-5.00000000    5.00000000     
-5.00000000    5.00000000     
-5.00000000    5.00000000     
ITEM: ATOMS id type q x y z mux muy muz
      1   1    1.0000       1.477641      -4.117577      -4.143603      -0.765694       0.636441      -0.093032
      2   2   -1.0000       4.823285       0.006778      -1.007269       0.612801      -0.542570       0.574537
      3   1    1.0000      -1.789711       1.236374      -3.200809       0.781333      -0.614143       0.111124
      4   2   -1.0000       0.224209      -3.868234      -3.284804      -0.908098       0.199532       0.368164
      5   2   -1.0000      -2.104003      -2.982647       4.083120       0.526462       0.265657      -0.807629
ITEM: TIMESTEP
3200
ITEM: NUMBER OF ATOMS
5
ITEM: BOX BOUNDS ff ff ff
-5.00000000    5.00000000     
-5.00000000    5.00000000     
-5.00000000    5.00000000     
ITEM: ATOMS id type q x y z mux muy muz
      1   1    1.0000       1.382064      -4.091771      -4.115181      -0.810546       0.585668       0.002895
      2   2   -1.0000       4.871146       0.021415      -1.018750       0.613140      -0.541299       0.575374
      3   1    1.0000      -1.782673       1.237957      -3.199442       0.782429      -0.611860       0.115899
      4   2   -1.0000       0.273682      -3.904346      -3.306621      -0.885824       0.170948       0.431384
      5   2   -1.0000      -2.112799      -2.988560       4.086630       0.528742       0.264934      -0.806375
ITEM: TIMESTEP
3300
ITEM: NUMBER OF ATOMS
5
ITEM: BOX BOUNDS ff ff ff
-5.00000000    5.00000000     
-5.00000000    5.00000000     
-5.00000000    5.00000000     
ITEM: ATOMS id type q x y z mux muy muz
      1   1    1.0000       1.283430      -4.072297      -4.069045      -0.855347       0.489701       0.169040
      2   2   -1.0000       4.911061       0.033773      -1.028536       0.613548      -0.540198       0.575972
      3   1    1.0000      -1.776522       1.239289      -3.198083       0.783542      -0.609576       0.120329
      4   2   -1.0000       0.333671      -3.932571      -3.347229      -0.855266       0.132402       0.500989
      5   2   -1.0000      -2.120220      -2.993500       4.089528       0.530934       0.264254      -0.805158
ITEM: TIMESTEP
3400
ITEM: NUMBER OF ATOMS
5
ITEM: BOX BOUNDS ff ff ff
-5.00000000    5.00000000     
-5.00000000    5.00000000     
-5.00000000    5.00000000     
ITEM: ATOMS id type q x y z mux muy muz
      1   1    1.0000       1.185537      -4.060832      -4.004646      -0.859770       0.333703       0.386572
      2   2   -1.0000       4.939888       0.042842      -1.035785       0.614069      -0.539251       0.576306
      3   1    1.0000      -1.771811       1.240276      -3.196914       0.784692      -0.607297       0.124293
      4   2   -1.0000       0.403465      -3.950514      -3.407608      -0.814684       0.086392       0.573433
      5   2   -1.0000      -2.125659      -2.997077       4.091589       0.533016       0.263665      -0.803974
ITEM: TIMESTEP
3500
ITEM: NUMBER OF ATOMS
5
ITEM: BOX BOUNDS ff ff ff
-5.00000000    5.00000000     
-5.00000000    5.00000000     
-5.00000000    5.00000000     
ITEM: ATOMS id type q x y z mux muy muz
      1   1    1.0000       1.210664      -4.072596      -4.021420      -0.792718       0.137119       0.593967
      2   2   -1.0000       4.963721       0.050488      -1.041951       0.614736      -0.538405       0.576386
      3   1    1.0000      -1.767619       1.241122      -3.195773       0.785895      -0.605017       0.127766
      4   2   -1.0000       0.354890      -3.944275      -3.387469      -0.771107       0.046405       0.635013
      5   2   -1.0000      -2.130236      -3.000045       4.093250       0.535014       0.263193      -0.802801
ITEM: TIMESTEP
3600
ITEM: NUMBER OF ATOMS
5
ITEM: BOX BOUNDS ff ff ff
-5.00000000    5.00000000     
-5.00000000    5.00000000     
-5.00000000    5.00000000     
ITEM: ATOMS id type q x y z mux muy muz
      1   1    1.0000       1.245649      -4.083498      -4.047115      -0.675242      -0.049846       0.735910
      2   2   -1.0000       4.983175       0.056866      -1.047145       0.615617      -0.537475       0.576313
      3   1    1.0000      -1.763893       1.241817      -3.194689       0.787216      -0.602569       0.131156
      4   2   -1.0000       0.300538      -3.938008      -3.358975      -0.741101       0.029019       0.670766
      5   2   -1.0000      -2.134048      -3.002482       4.094560       0.537153       0.262787      -0.801505
ITEM: TIMESTEP
3700
ITEM: NUMBER OF ATOMS
5
ITEM: BOX BOUNDS ff ff ff
-5.00000000    5.00000000     
-5.00000000    5.00000000     
-5.00000000    5.00000000     
ITEM: ATOMS id type q x y z mux muy muz
      1   1    1.0000       1.247040      -4.092238      -4.062220      -0.532914      -0.215675       0.818222
      2   2   -1.0000       4.956138       0.077007      -1.063671       0.616868      -0.536219       0.576145
      3   1    1.0000      -1.751589       1.243924      -3.190991       0.788815      -0.599609       0.135053
      4   2   -1.0000       0.238310      -3.943900      -3.335022      -0.730496       0.037092       0.681908
      5   2   -1.0000      -2.146082      -3.010099       4.098539       0.539804       0.262374      -0.799857
ITEM: TIMESTEP
3800
ITEM: NUMBER OF ATOMS
5
ITEM: BOX BOUNDS ff ff ff
-5.00000000    5.00000000     
-5.00000000    5.00000000     
-5.00000000    5.00000000     
ITEM: ATOMS id type q x y z mux muy muz
      1   1    1.0000       1.198104      -4.090115      -4.058780      -0.398911      -0.345617       0.849364
      2   2   -1.0000       4.868071       0.106207      -1.087709       0.618531      -0.534543       0.575919
      3   1    1.0000      -1.733414       1.246894      -3.185480       0.790679      -0.596125       0.139504
      4   2   -1.0000       0.199177      -3.967188      -3.325612      -0.741328       0.070043       0.667478
      5   2   -1.0000      -2.163530      -3.021104       4.104216       0.543006       0.261952      -0.797826
ITEM: TIMESTEP
3900
ITEM: NUMBER OF ATOMS
5
ITEM: BOX BOUNDS ff ff ff
-5.00000000    5.00000000     
-5.00000000    5.00000000     
-5.00000000    5.00000000     
ITEM: ATOMS id type q x y z mux muy muz