ITEM: TIMESTEP
0
ITEM: NUMBER OF ATOMS
5
ITEM: BOX BOUNDS ff ff ff
-5.00000000    5.00000000     
-5.00000000    5.00000000     
-5.00000000    5.00000000     
ITEM: ATOMS id type q x y z mux muy muz
      1   1    1.0000      -0.080164       0.727832      -2.616360       0.644356      -0.190160      -0.740706
      2   2   -1.0000       2.940016      -0.135422      -1.659735      -0.782957       0.490249       0.382928
      3   1    1.0000      -3.932069      -2.611783       4.492872       0.299226      -0.933718      -0.196555
      4   2   -1.0000      -1.949654      -3.310954      -0.393292      -0.169158       0.553009      -0.815822
      5   2   -1.0000      -1.929214      -4.648483      -1.768665       0.779083      -0.054517       0.624546
ITEM: TIMESTEP
100
ITEM: NUMBER OF ATOMS
5
ITEM: BOX BOUNDS ff ff ff
-5.00000000    5.00000000     
-5.00000000    5.00000000     
-5.00000000    5.00000000     
ITEM: ATOMS id type q x y z mux muy muz
      1   1    1.0000      -0.024345       0.738146      -2.589527       0.663626      -0.157912      -0.731208
      2   2   -1.0000       2.986287      -0.160104      -1.678843      -0.732896       0.607824       0.305636
      3   1    1.0000      -3.959804      -2.635335       4.498579       0.420176      -0.904735      -0.070049
      4   2   -1.0000      -2.014445      -3.265867      -0.394654      -0.119269       0.553964      -0.823953
      5   2   -1.0000      -1.938778      -4.655651      -1.780736       0.763924      -0.097618       0.637881
ITEM: TIMESTEP
200
ITEM: NUMBER OF ATOMS
5
ITEM: BOX BOUNDS ff ff ff
-5.00000000    5.00000000     
-5.00000000    5.00000000     
-5.00000000    5.00000000     
ITEM: ATOMS id type q x y z mux muy muz
      1   1    1.0000       0.032153       0.747800      -2.562404       0.683542      -0.131437      -0.717980
      2   2   -1.0000       3.032383      -0.184377      -1.698099      -0.673814       0.698844       0.239985
      3   1    1.0000      -3.987412      -2.659070       4.503628       0.538334      -0.840247       0.064671
      4   2   -1.0000      -2.078996      -3.221085      -0.394662      -0.078262       0.538869      -0.838746
      5   2   -1.0000      -1.949212      -4.662078      -1.793643       0.739512      -0.130693       0.660335
ITEM: TIMESTEP
300
ITEM: NUMBER OF ATOMS
5
ITEM: BOX BOUNDS ff ff ff
-5.00000000    5.00000000     
-5.00000000    5.00000000     
-5.00000000    5.00000000     
ITEM: ATOMS id type q x y z mux muy muz
      1   1    1.0000       0.089241       0.756747      -2.535007       0.703446      -0.112090      -0.701854
      2   2   -1.0000       3.078318      -0.208177      -1.717495      -0.613023       0.767315       0.188230
      3   1    1.0000      -4.014899      -2.682960       4.508018       0.644583      -0.737885       0.200096
      4   2   -1.0000      -2.143329      -3.176594      -0.393199      -0.046354       0.509382      -0.859291
      5   2   -1.0000      -1.960416      -4.667827      -1.807498       0.708092      -0.153270       0.689286
ITEM: TIMESTEP
400
ITEM: NUMBER OF ATOMS
5
ITEM: BOX BOUNDS ff ff ff
-5.00000000    5.00000000     
-5.00000000    5.00000000     
-5.00000000    5.00000000     
ITEM: ATOMS id type q x y z mux muy muz
      1   1    1.0000       0.146839       0.764943      -2.507354       0.722775      -0.100578      -0.683725
      2   2   -1.0000       3.124087      -0.231441      -1.737020      -0.554942       0.818209       0.150244
      3   1    1.0000      -4.042270      -2.706976       4.511753       0.730395      -0.599202       0.327842
      4   2   -1.0000      -2.207474      -3.132384      -0.390246      -0.022844       0.468014      -0.883426
      5   2   -1.0000      -1.972266      -4.672952      -1.822313       0.671921      -0.166196       0.721735
ITEM: TIMESTEP
500
ITEM: NUMBER OF ATOMS
5
ITEM: BOX BOUNDS ff ff ff
-5.00000000    5.00000000     
-5.00000000    5.00000000     
-5.00000000    5.00000000     
ITEM: ATOMS id type q x y z mux muy muz
      1   1    1.0000       0.204879       0.772345      -2.479458       0.741063      -0.096976      -0.664395
      2   2   -1.0000       3.169676      -0.254112      -1.756670      -0.501518       0.856139       0.124524
      3   1    1.0000      -4.069531      -2.731098       4.514845       0.788908      -0.429126       0.439859
      4   2   -1.0000      -2.271468      -3.088442      -0.385860      -0.006497       0.417685      -0.908569
      5   2   -1.0000      -1.984640      -4.677503      -1.838037       0.633048      -0.171064       0.754975
ITEM: TIMESTEP
600
ITEM: NUMBER OF ATOMS
5
ITEM: BOX BOUNDS ff ff ff
-5.00000000    5.00000000     
-5.00000000    5.00000000     
-5.00000000    5.00000000     
ITEM: ATOMS id type q x y z mux muy muz
      1   1    1.0000       0.263311       0.778914      -2.451333       0.757915      -0.100851      -0.644510
      2   2   -1.0000       3.215065      -0.276138      -1.776438      -0.453091       0.884768       0.109060
      3   1    1.0000      -4.096688      -2.755311       4.517310       0.815328      -0.235044       0.529146
      4   2   -1.0000      -2.335338      -3.044747      -0.380138       0.004109       0.361395      -0.932404
      5   2   -1.0000      -1.997435      -4.681529      -1.854581       0.593234      -0.169716       0.786937
ITEM: TIMESTEP
700
ITEM: NUMBER OF ATOMS
5
ITEM: BOX BOUNDS ff ff ff
-5.00000000    5.00000000     
-5.00000000    5.00000000     
-5.00000000    5.00000000     
ITEM: ATOMS id type q x y z mux muy muz
      1   1    1.0000       0.322098       0.784612      -2.422992       0.772995      -0.111415      -0.624552
      2   2   -1.0000       3.260233      -0.297469      -1.796319      -0.409158       0.906762       0.101847
      3   1    1.0000      -4.123746      -2.779610       4.519166       0.806933      -0.026027       0.590070
      4   2   -1.0000      -2.399107      -3.001267      -0.373193       0.010362       0.301981      -0.953258
      5   2   -1.0000      -2.010563      -4.685077      -1.871842       0.553942      -0.163921       0.816259
ITEM: TIMESTEP
800
ITEM: NUMBER OF ATOMS
5
ITEM: BOX BOUNDS ff ff ff
-5.00000000    5.00000000     
-5.00000000    5.00000000     
-5.00000000    5.00000000     
ITEM: ATOMS id type q x y z mux muy muz
      1   1    1.0000       0.381215       0.789403      -2.394449       0.786027      -0.127663      -0.604866
      2   2   -1.0000       3.305156      -0.318060      -1.816306      -0.368874       0.923965       0.101101
      3   1    1.0000      -4.150708      -2.803997       4.520430       0.762995       0.187768       0.618532
      4   2   -1.0000      -2.462791      -2.957961      -0.365133       0.013509       0.241941      -0.970197
      5   2   -1.0000      -2.023956      -4.688195      -1.889723       0.516331      -0.155212       0.842206
ITEM: TIMESTEP
900
ITEM: NUMBER OF ATOMS
5
ITEM: BOX BOUNDS ff ff ff
-5.00000000    5.00000000     
-5.00000000    5.00000000     
-5.00000000    5.00000000     
ITEM: ATOMS id type q x y z mux muy muz
      1   1    1.0000       0.440644       0.793253      -2.365719       0.796821      -0.148482      -0.585687
      2   2   -1.0000       3.349804      -0.337870      -1.836391      -0.331314       0.937624       0.105315
      3   1    1.0000      -4.177568      -2.828479       4.521118       0.684714       0.395596       0.612103
      4   2   -1.0000      -2.526401      -2.914781      -0.356054       0.014612       0.183293      -0.982950
      5   2   -1.0000      -2.037563      -4.690934      -1.908134       0.481250      -0.144820       0.864538
ITEM: TIMESTEP
1000
ITEM: NUMBER OF ATOMS
5
ITEM: BOX BOUNDS ff ff ff
-5.00000000    5.00000000     
-5.00000000    5.00000000     
-5.00000000    5.00000000     
ITEM: ATOMS id type q x y z mux muy muz
      1   1    1.0000       0.500376       0.796126      -2.336819       0.805282      -0.172764      -0.567163
      2   2   -1.0000       3.394146      -0.356855      -1.856565      -0.295604       0.948574       0.113252
      3   1    1.0000      -4.204316      -2.853065       4.521240       0.575152       0.586625       0.570150
      4   2   -1.0000      -2.589947      -2.871678      -0.346035       0.014537       0.127514      -0.991730
      5   2   -1.0000      -2.051344      -4.693339      -1.927001       0.449239      -0.133672       0.883355
ITEM: TIMESTEP
1100
ITEM: NUMBER OF ATOMS
5
ITEM: BOX BOUNDS ff ff ff
-5.00000000    5.00000000     
-5.00000000    5.00000000     
-5.00000000    5.00000000     
ITEM: ATOMS id type q x y z mux muy muz
      1   1    1.0000       0.560404       0.797988      -2.307770       0.811417      -0.199484      -0.549372
      2   2   -1.0000       3.438147      -0.374975      -1.876814      -0.260964       0.957362       0.123917
      3   1    1.0000      -4.230932      -2.877762       4.520798       0.439128       0.750474       0.493918
      4   2   -1.0000      -2.653437      -2.828606      -0.335135       0.013966       0.075549      -0.997044
      5   2   -1.0000      -2.065267      -4.695455      -1.946260       0.420562      -0.122418       0.898967
ITEM: TIMESTEP
1200
ITEM: NUMBER OF ATOMS
5
ITEM: BOX BOUNDS ff ff ff
-5.00000000    5.00000000     
-5.00000000    5.00000000     
-5.00000000    5.00000000     
ITEM: ATOMS id type q x y z mux muy muz
      1   1    1.0000       0.620725       0.798806      -2.278593       0.815318      -0.227760      -0.532337
      2   2   -1.0000       3.481769      -0.392188      -1.897125      -0.226720       0.964345       0.136520
      3   1    1.0000      -4.257388      -2.902578       4.519789       0.283045       0.877759       0.386554
      4   2   -1.0000      -2.716883      -2.785526      -0.323393       0.013414       0.027884      -0.999521
      5   2   -1.0000      -2.079308      -4.697324      -1.965859       0.395255      -0.111478       0.911782
ITEM: TIMESTEP
1300
ITEM: NUMBER OF ATOMS
5
ITEM: BOX BOUNDS ff ff ff
-5.00000000    5.00000000     
-5.00000000    5.00000000     
-5.00000000    5.00000000     
ITEM: ATOMS id type q x y z mux muy muz
      1   1    1.0000       0.681341       0.798548      -2.249313       0.817138      -0.256879      -0.516042
      2   2   -1.0000       3.524968      -0.408454      -1.917481      -0.192297       0.969737       0.150439
      3   1    1.0000      -4.283651      -2.927513       4.518203       0.114650       0.960637       0.253044
      4   2   -1.0000      -2.780297      -2.742408      -0.310836       0.013253      -0.015339      -0.999795
      5   2   -1.0000      -2.093447      -4.698983      -1.985753       0.373188      -0.101091       0.922232
ITEM: TIMESTEP
1400
ITEM: NUMBER OF ATOMS
5
ITEM: BOX BOUNDS ff ff ff
-5.00000000    5.00000000     
-5.00000000    5.00000000     
-5.00000000    5.00000000     
ITEM: ATOMS id type q x y z mux muy muz
      1   1    1.0000       0.742258       0.797179      -2.219956       0.817063      -0.286295      -0.500442
      2   2   -1.0000       3.567702      -0.423732      -1.937864      -0.157210       0.973651       0.165191
      3   1    1.0000      -4.309682      -2.952562       4.516020      -0.057281       0.993330       0.100068
      4   2   -1.0000      -2.843696      -2.699231      -0.297475       0.013741      -0.054212      -0.998435
      5   2   -1.0000      -2.107667      -4.700464      -2.005906       0.354124      -0.091369       0.930724
ITEM: TIMESTEP
1500
ITEM: NUMBER OF ATOMS
5
ITEM: BOX BOUNDS ff ff ff
-5.00000000    5.00000000     
-5.00000000    5.00000000     
-5.00000000    5.00000000     
ITEM: ATOMS id type q x y z mux muy muz
      1   1    1.0000       0.803487       0.794667      -2.190550       0.815292      -0.315610      -0.485478
      2   2   -1.0000       3.609922      -0.437981      -1.958254      -0.121048       0.976117       0.180395
      3   1    1.0000      -4.335439      -2.977709       4.513218      -0.223351       0.972619      -0.064245
      4   2   -1.0000      -2.907099      -2.655990      -0.283311       0.015038      -0.088951      -0.995922
      5   2   -1.0000      -2.121956      -4.701798      -2.026284       0.337772      -0.082334       0.937620
ITEM: TIMESTEP
1600
ITEM: NUMBER OF ATOMS
5
ITEM: BOX BOUNDS ff ff ff
-5.00000000    5.00000000     
-5.00000000    5.00000000     
-5.00000000    5.00000000     
ITEM: ATOMS id type q x y z mux muy muz
      1   1    1.0000       0.865043       0.790978      -2.161124       0.812014      -0.344548      -0.471084
      2   2   -1.0000       3.651579      -0.451157      -1.978629      -0.083464       0.977097       0.195744
      3   1    1.0000      -4.360881      -3.002934       4.509768      -0.374045       0.898260      -0.230692
      4   2   -1.0000      -2.970524      -2.612688      -0.268338       0.017235      -0.119828      -0.992645
      5   2   -1.0000      -2.136301      -4.703010      -2.046858       0.323821      -0.073953       0.943224
ITEM: TIMESTEP
1700
ITEM: NUMBER OF ATOMS
5
ITEM: BOX BOUNDS ff ff ff
-5.00000000    5.00000000     
-5.00000000    5.00000000     
-5.00000000    5.00000000     
ITEM: ATOMS id type q x y z mux muy muz
      1   1    1.0000       0.926946       0.786078      -2.131710       0.807404      -0.372923      -0.457194
      2   2   -1.0000       3.692619      -0.463218      -1.998965      -0.044165       0.976491       0.210983
      3   1    1.0000      -4.385967      -3.028203       4.505641      -0.500329       0.773274      -0.389511
      4   2   -1.0000      -3.033990      -2.569343      -0.252546       0.020357      -0.147118      -0.988909
      5   2   -1.0000      -2.150693      -4.704124      -2.067600       0.311966      -0.066159       0.947787
ITEM: TIMESTEP
1800
ITEM: NUMBER OF ATOMS
5
ITEM: BOX BOUNDS ff ff ff
-5.00000000    5.00000000     
-5.00000000    5.00000000     
-5.00000000    5.00000000     
ITEM: ATOMS id type q x y z mux muy muz
      1   1    1.0000       0.989226       0.779931      -2.102340       0.801619      -0.400613      -0.443753
      2   2   -1.0000       3.732987      -0.474120      -2.019237      -0.002908       0.974150       0.225885
      3   1    1.0000      -4.410664      -3.053475       4.500807      -0.594312       0.604001      -0.531013
      4   2   -1.0000      -3.097511      -2.525984      -0.235925       0.024379      -0.171074      -0.984956
      5   2   -1.0000      -2.165122      -4.705161      -2.088486       0.301921      -0.058870       0.951513
ITEM: TIMESTEP
1900
ITEM: NUMBER OF ATOMS
5
ITEM: BOX BOUNDS ff ff ff
-5.00000000    5.00000000     
-5.00000000    5.00000000     
-5.00000000    5.00000000     
ITEM: ATOMS id type q x y z mux muy muz
      1   1    1.0000       1.051916       0.772498      -2.073049       0.794793      -0.427540      -0.430713
      2   2   -1.0000       3.772621      -0.483816      -2.039415       0.040505       0.969869       0.240235
      3   1    1.0000      -4.434943      -3.078704       4.495241      -0.649898       0.399889      -0.646314
      4   2   -1.0000      -3.161100      -2.482647      -0.218464       0.029233      -0.191917      -0.980976
      5   2   -1.0000      -2.179579      -4.706141      -2.109494       0.293426      -0.051999       0.954567
ITEM: TIMESTEP
2000
ITEM: NUMBER OF ATOMS
5
ITEM: BOX BOUNDS ff ff ff
-5.00000000    5.00000000     
-5.00000000    5.00000000     
-5.00000000    5.00000000     
ITEM: ATOMS id type q x y z mux muy muz
      1   1    1.0000       1.115060       0.763740      -2.043874       0.787047      -0.453647      -0.418044
      2   2   -1.0000       3.811458      -0.492257      -2.059469       0.086223       0.963402       0.253816
      3   1    1.0000      -4.458787      -3.103835       4.488920      -0.663346       0.172941      -0.728055
      4   2   -1.0000      -3.224759      -2.439378      -0.200156       0.034809      -0.209838      -0.977116
      5   2   -1.0000      -2.194057      -4.707081      -2.130602       0.286245      -0.045458       0.957078
ITEM: TIMESTEP
2100
ITEM: NUMBER OF ATOMS
5
ITEM: BOX BOUNDS ff ff ff
-5.00000000    5.00000000     
-5.00000000    5.00000000     
-5.00000000    5.00000000     
ITEM: ATOMS id type q x y z mux muy muz
      1   1    1.0000       1.178709       0.753613      -2.014856       0.778490      -0.478890      -0.405731
      2   2   -1.0000       3.849424      -0.499390      -2.079363       0.134335       0.954456       0.266398
      3   1    1.0000      -4.482187      -3.128811       4.481832      -0.633650      -0.063110      -0.771042
      4   2   -1.0000      -3.288484      -2.396225      -0.181003       0.040967      -0.225009      -0.973495
      5   2   -1.0000      -2.208546      -4.707997      -2.151791       0.280169      -0.039166       0.959151
ITEM: TIMESTEP
2200
ITEM: NUMBER OF ATOMS
5
ITEM: BOX BOUNDS ff ff ff
-5.00000000    5.00000000     
-5.00000000    5.00000000     
-5.00000000    5.00000000     
ITEM: ATOMS id type q x y z mux muy muz
      1   1    1.0000       1.242922       0.742070      -1.986040       0.769224      -0.503225      -0.393776
      2   2   -1.0000       3.886439      -0.505159      -2.099057       0.184868       0.942703       0.277731
      3   1    1.0000      -4.505148      -3.153577       4.473972      -0.562666      -0.293851      -0.772695
      4   2   -1.0000      -3.352261      -2.353240      -0.161013       0.047538      -0.237593      -0.970201
      5   2   -1.0000      -2.223037      -4.708905      -2.173043       0.275009      -0.033051       0.960873
ITEM: TIMESTEP
2300
ITEM: NUMBER OF ATOMS
5
ITEM: BOX BOUNDS ff ff ff
-5.00000000    5.00000000     
-5.00000000    5.00000000     
-5.00000000    5.00000000     
ITEM: ATOMS id type q x y z mux muy muz
      1   1    1.0000       1.307769       0.729060      -1.957476       0.759352      -0.526599      -0.382201
      2   2   -1.0000       3.922415      -0.509504      -2.118508       0.237768       0.927786       0.287540
      3   1    1.0000      -4.527683      -3.178076       4.465346      -0.454963      -0.505318      -0.733255
      4   2   -1.0000      -3.416064      -2.310474      -0.140201       0.054335      -0.247760      -0.967297
      5   2   -1.0000      -2.237521      -4.709817      -2.194342       0.270596      -0.027052       0.962313
ITEM: TIMESTEP
2400
ITEM: NUMBER OF ATOMS
5
ITEM: BOX BOUNDS ff ff ff
-5.00000000    5.00000000     
-5.00000000    5.00000000     
-5.00000000    5.00000000     
ITEM: ATOMS id type q x y z mux muy muz
      1   1    1.0000       1.373328       0.714529      -1.929225       0.748984      -0.548949      -0.371048
      2   2   -1.0000       3.957246      -0.512360      -2.137661       0.292888       0.909331       0.295522
      3   1    1.0000      -4.549815      -3.202259       4.455970      -0.317410      -0.685063      -0.655698
      4   2   -1.0000      -3.479856      -2.267975      -0.118594       0.061161      -0.255690      -0.964822
      5   2   -1.0000      -2.251988      -4.710746      -2.215671       0.266774      -0.021120       0.963528
ITEM: TIMESTEP
2500
ITEM: NUMBER OF ATOMS
5
ITEM: BOX BOUNDS ff ff ff
-5.00000000    5.00000000     
-5.00000000    5.00000000     
-5.00000000    5.00000000     
ITEM: ATOMS id type q x y z mux muy muz
      1   1    1.0000       1.439686       0.698419      -1.901351       0.738243      -0.570198      -0.360376
      2   2   -1.0000       3.990816      -0.513655      -2.156457       0.349974       0.886964       0.301353
      3   1    1.0000      -4.571574      -3.226082       4.445868      -0.158565      -0.823035      -0.545408
      4   2   -1.0000      -3.543589      -2.225790      -0.096225       0.067821      -0.261588      -0.962794
      5   2   -1.0000      -2.266424      -4.711702      -2.237015       0.263407      -0.015220       0.964565
ITEM: TIMESTEP
2600
ITEM: NUMBER OF ATOMS
5
ITEM: BOX BOUNDS ff ff ff
-5.00000000    5.00000000     
-5.00000000    5.00000000     
-5.00000000    5.00000000     
ITEM: ATOMS id type q x y z mux muy muz
      1   1    1.0000       1.506939       0.680668      -1.873936       0.727267      -0.590253      -0.350263
      2   2   -1.0000       4.022987      -0.513316      -2.174824       0.408659       0.860326       0.304690
      3   1    1.0000      -4.592995      -3.249509       4.435073       0.012041      -0.912168      -0.409639
      4   2   -1.0000      -3.607199      -2.183960      -0.073137       0.074130      -0.265678      -0.961207
      5   2   -1.0000      -2.280816      -4.712694      -2.258357       0.260369      -0.009329       0.965464
ITEM: TIMESTEP
2700
ITEM: NUMBER OF ATOMS
5
ITEM: BOX BOUNDS ff ff ff
-5.00000000    5.00000000     
-5.00000000    5.00000000     
-5.00000000    5.00000000     
ITEM: ATOMS id type q x y z mux muy muz
      1   1    1.0000       1.575192       0.661213      -1.847070       0.716214      -0.609009      -0.340800
      2   2   -1.0000       4.053601      -0.511261      -2.192679       0.468455       0.829104       0.305184
      3   1    1.0000      -4.614114      -3.272511       4.423625       0.184635      -0.948645      -0.256869
      4   2   -1.0000      -3.670616      -2.142520      -0.049377       0.079927      -0.268210      -0.960039
      5   2   -1.0000      -2.295148      -4.713730      -2.279680       0.257552      -0.003440       0.966258
ITEM: TIMESTEP
2800
ITEM: NUMBER OF ATOMS
5
ITEM: BOX BOUNDS ff ff ff
-5.00000000    5.00000000     
-5.00000000    5.00000000     
-5.00000000    5.00000000     
ITEM: ATOMS id type q x y z mux muy muz
      1   1    1.0000       1.644559       0.639989      -1.820862       0.705264      -0.626350      -0.332096
      2   2   -1.0000       4.082475      -0.507408      -2.209923       0.528757       0.793042       0.302490
      3   1    1.0000      -4.634964      -3.295069       4.411568       0.349857      -0.931858      -0.096132
      4   2   -1.0000      -3.733752      -2.101507      -0.025000       0.085080      -0.269442      -0.959251
      5   2   -1.0000      -2.309402      -4.714816      -2.300963       0.254860       0.002446       0.966975
ITEM: TIMESTEP
2900
ITEM: NUMBER OF ATOMS
5
ITEM: BOX BOUNDS ff ff ff
-5.00000000    5.00000000     
-5.00000000    5.00000000     
-5.00000000    5.00000000     
ITEM: ATOMS id type q x y z mux muy muz
      1   1    1.0000       1.715161       0.616933      -1.795441       0.694618      -0.642149      -0.324269
      2   2   -1.0000       4.109394      -0.501668      -2.226442       0.588858       0.751973       0.296280
      3   1    1.0000      -4.655573      -3.317166       4.398946       0.499269      -0.864110       0.063592
      4   2   -1.0000      -3.796509      -2.060953      -0.000062       0.089499      -0.269640      -0.958793
      5   2   -1.0000      -2.323557      -4.715956      -2.322182       0.252215       0.008315       0.967636
ITEM: TIMESTEP
3000
ITEM: NUMBER OF ATOMS
5
ITEM: BOX BOUNDS ff ff ff
-5.00000000    5.00000000     
-5.00000000    5.00000000     
-5.00000000    5.00000000     
ITEM: ATOMS id type q x y z mux muy muz
      1   1    1.0000       1.787126       0.591985      -1.770956       0.684498      -0.656270      -0.317446
      2   2   -1.0000       4.134112      -0.493953      -2.242098       0.647964       0.705833       0.286258
      3   1    1.0000      -4.675959      -3.338792       4.385807       0.625700      -0.750174       0.213865
      4   2   -1.0000      -3.858776      -2.020897       0.025375       0.093133      -0.269058      -0.958610
      5   2   -1.0000      -2.337587      -4.717153      -2.343309       0.249555       0.014149       0.968257
ITEM: TIMESTEP
3100
ITEM: NUMBER OF ATOMS
5
ITEM: BOX BOUNDS ff ff ff
-5.00000000    5.00000000     
-5.00000000    5.00000000     
-5.00000000    5.00000000     
ITEM: ATOMS id type q x y z mux muy muz
      1   1    1.0000       1.860591       0.565092      -1.747585       0.675143      -0.668569      -0.311764
      2   2   -1.0000       4.156345      -0.484177      -2.256733       0.705217       0.654671       0.272168
      3   1    1.0000      -4.696129      -3.359935       4.372194       0.723424      -0.596783       0.347141
      4   2   -1.0000      -3.920425      -1.981383       0.051249       0.095978      -0.267932      -0.958645
      5   2   -1.0000      -2.351465      -4.718407      -2.364306       0.246836       0.019923       0.968853
ITEM: TIMESTEP
3200
ITEM: NUMBER OF ATOMS
5
ITEM: BOX BOUNDS ff ff ff
-5.00000000    5.00000000     
-5.00000000    5.00000000     
-5.00000000    5.00000000     
ITEM: ATOMS id type q x y z mux muy muz
      1   1    1.0000       1.935696       0.536210      -1.725536       0.666812      -0.678886      -0.307369
      2   2   -1.0000       4.175764      -0.472254      -2.270158       0.759729       0.598663       0.253801
      3   1    1.0000      -4.716074      -3.380581       4.358152       0.788220      -0.412153       0.456988
      4   2   -1.0000      -3.981312      -1.942467       0.077492       0.098069      -0.266459      -0.958844
      5   2   -1.0000      -2.365158      -4.719717      -2.385130       0.244027       0.025612       0.969430
ITEM: TIMESTEP
3300
ITEM: NUMBER OF ATOMS
5
ITEM: BOX BOUNDS ff ff ff
-5.00000000    5.00000000     
-5.00000000    5.00000000     
-5.00000000    5.00000000     
ITEM: ATOMS id type q x y z mux muy muz
      1   1    1.0000       2.012588       0.505312      -1.705055       0.659780      -0.687038      -0.304417
      2   2   -1.0000       4.191988      -0.458110      -2.282152       0.810602       0.538113       0.230998
      3   1    1.0000      -4.735764      -3.400709       4.343722       0.817355      -0.205581       0.538207
      4   2   -1.0000      -4.041270      -1.904223       0.104032       0.099480      -0.264798      -0.959159
      5   2   -1.0000      -2.378627      -4.721081      -2.405727       0.241115       0.031192       0.969995
ITEM: TIMESTEP
3400
ITEM: NUMBER OF ATOMS
5
ITEM: BOX BOUNDS ff ff ff
-5.00000000    5.00000000     
-5.00000000    5.00000000     
-5.00000000    5.00000000     
ITEM: ATOMS id type q x y z mux muy muz
      1   1    1.0000       2.091419       0.472393      -1.686432       0.654339      -0.692808      -0.303080
      2   2   -1.0000       4.204581      -0.441679      -2.292452       0.856956       0.473449       0.203649
      3   1    1.0000      -4.755152      -3.420283       4.328945       0.809554       0.012866       0.586905
      4   2   -1.0000      -4.100107      -1.866747       0.130789       0.100318      -0.263053      -0.959552
      5   2   -1.0000      -2.391826      -4.722494      -2.426030       0.238098       0.036640       0.970550
ITEM: TIMESTEP
3500
ITEM: NUMBER OF ATOMS
5
ITEM: BOX BOUNDS ff ff ff
-5.00000000    5.00000000     
-5.00000000    5.00000000     
-5.00000000    5.00000000     
ITEM: ATOMS id type q x y z mux muy muz
      1   1    1.0000       2.172344       0.437479      -1.670010       0.650803      -0.695926      -0.303549
      2   2   -1.0000       4.213034      -0.422916      -2.300751       0.897952       0.405226       0.171684
      3   1    1.0000      -4.774164      -3.439254       4.313868       0.764997       0.232592       0.600567
      4   2   -1.0000      -4.157597      -1.830170       0.157670       0.100712      -0.261274      -0.959996
      5   2   -1.0000      -2.404701      -4.723949      -2.445958       0.234989       0.041942       0.971093
ITEM: TIMESTEP
3600
ITEM: NUMBER OF ATOMS
5
ITEM: BOX BOUNDS ff ff ff
-5.00000000    5.00000000     
-5.00000000    5.00000000     
-5.00000000    5.00000000     
ITEM: ATOMS id type q x y z mux muy muz
      1   1    1.0000       2.255517       0.400638      -1.656197       0.649514      -0.696038      -0.306044
      2   2   -1.0000       4.216757      -0.401805      -2.306679       0.932801       0.334124       0.135066
      3   1    1.0000      -4.792699      -3.457545       4.298546       0.685372       0.442716       0.578159
      4   2   -1.0000      -4.213470      -1.794660       0.184559       0.100809      -0.259458      -0.960479
      5   2   -1.0000      -2.417190      -4.725438      -2.465409       0.231807       0.047087       0.971622
ITEM: TIMESTEP
3700
ITEM: NUMBER OF ATOMS
5
ITEM: BOX BOUNDS ff ff ff
-5.00000000    5.00000000     
-5.00000000    5.00000000     
-5.00000000    5.00000000     
ITEM: ATOMS id type q x y z mux muy muz
      1   1    1.0000       2.341096       0.361998      -1.645482       0.650848      -0.692666      -0.310823
      2   2   -1.0000       4.215058      -0.378370      -2.309798       0.960785       0.260956       0.093776
      3   1    1.0000      -4.810626      -3.475054       4.283049       0.573952       0.632373       0.520271
      4   2   -1.0000      -4.267400      -1.760437       0.211308       0.100766      -0.257546      -0.960998
      5   2   -1.0000      -2.429214      -4.726948      -2.484258       0.228580       0.052074       0.972131
ITEM: TIMESTEP
3800
ITEM: NUMBER OF ATOMS
5
ITEM: BOX BOUNDS ff ff ff
-5.00000000    5.00000000     
-5.00000000    5.00000000     
-5.00000000    5.00000000     
ITEM: ATOMS id type q x y z mux muy muz
      1   1    1.0000       2.429232       0.321771      -1.638453       0.655227      -0.685151      -0.318192
      2   2   -1.0000       4.207123      -0.352697      -2.309577       0.981256       0.186685       0.047797
      3   1    1.0000      -4.827777      -3.491641       4.267479       0.435687       0.791140       0.429271
      4   2   -1.0000      -4.318984      -1.727781       0.237722       0.100743      -0.255435      -0.961563
      5   2   -1.0000      -2.440679      -4.728464      -2.502351       0.225342       0.056908       0.972616
ITEM: TIMESTEP
3900
ITEM: NUMBER OF ATOMS
5
ITEM: BOX BOUNDS ff ff ff
-5.00000000    5.00000000     
-5.00000000    5.00000000     
-5.00000000    5.00000000     
ITEM: ATOMS id type q x y z mux muy muz