ITEM: TIMESTEP
0
ITEM: NUMBER OF ATOMS
5
ITEM: BOX BOUNDS ff ff ff
-5.00000000    5.00000000     
-5.00000000    5.00000000     
-5.00000000    5.00000000     
ITEM: ATOMS id type q x y z mux muy muz
      1   1    1.0000      -1.120008       3.295215      -3.663145       0.830277      -0.498619      -0.249037
      2   2   -1.0000       4.354270       2.514648       4.413087      -0.445891      -0.053066       0.893513
      3   1    1.0000       1.766135      -1.366181       4.381743       0.439888      -0.679731       0.586911
      4   2   -1.0000      -2.244542      -1.677919       2.008764      -0.060769      -0.702434       0.709150
      5   2   -1.0000       2.652820       4.293928      -2.952229      -0.420697       0.156894      -0.893531
ITEM: TIMESTEP
100
ITEM: NUMBER OF ATOMS
5
ITEM: BOX BOUNDS ff ff ff
-5.00000000    5.00000000     
-5.00000000    5.00000000     
-5.00000000    5.00000000     
ITEM: ATOMS id type q x y z mux muy muz
      1   1    1.0000      -1.093276       3.250947      -3.672984       0.836984      -0.495021      -0.233264
      2   2   -1.0000       4.386767       2.555962       4.387545      -0.442417      -0.107411       0.890354
      3   1    1.0000       1.762391      -1.388058       4.374760       0.426961      -0.682441       0.593278
      4   2   -1.0000      -2.265529      -1.642388       2.076720      -0.068104      -0.698630       0.712234
      5   2   -1.0000       2.618323       4.283228      -2.977820      -0.419930       0.154395      -0.894327
ITEM: TIMESTEP
200
ITEM: NUMBER OF ATOMS
5
ITEM: BOX BOUNDS ff ff ff
-5.00000000    5.00000000     
-5.00000000    5.00000000     
-5.00000000    5.00000000     
ITEM: ATOMS id type q x y z mux muy muz
      1   1    1.0000      -1.066053       3.206776      -3.682283       0.847788      -0.488457      -0.206557
      2   2   -1.0000       4.419229       2.596983       4.362299      -0.438399      -0.158268       0.884736
      3   1    1.0000       1.758626      -1.409526       4.367478       0.411959      -0.685167       0.600696
      4   2   -1.0000      -2.286471      -1.607011       2.144683      -0.079481      -0.693311       0.716242
      5   2   -1.0000       2.583345       4.272468      -3.003956      -0.413251       0.155249      -0.897286
ITEM: TIMESTEP
300
ITEM: NUMBER OF ATOMS
5
ITEM: BOX BOUNDS ff ff ff
-5.00000000    5.00000000     
-5.00000000    5.00000000     
-5.00000000    5.00000000     
ITEM: ATOMS id type q x y z mux muy muz
      1   1    1.0000      -1.038326       3.162732      -3.691024       0.863115      -0.477257      -0.165099
      2   2   -1.0000       4.451657       2.637717       4.337346      -0.434114      -0.205442       0.877119
      3   1    1.0000       1.754830      -1.430590       4.359904       0.394118      -0.687950       0.609423
      4   2   -1.0000      -2.307357      -1.571803       2.212641      -0.096296      -0.685842       0.721351
      5   2   -1.0000       2.547872       4.261635      -3.030647      -0.398536       0.160777      -0.902951
ITEM: TIMESTEP
400
ITEM: NUMBER OF ATOMS
5
ITEM: BOX BOUNDS ff ff ff
-5.00000000    5.00000000     
-5.00000000    5.00000000     
-5.00000000    5.00000000     
ITEM: ATOMS id type q x y z mux muy muz
      1   1    1.0000      -1.010073       3.118847      -3.699188       0.882439      -0.458776      -0.104048
      2   2   -1.0000       4.484049       2.678170       4.312684      -0.429836      -0.248671       0.867988
      3   1    1.0000       1.750992      -1.451256       4.352045       0.372646      -0.690770       0.619654
      4   2   -1.0000      -2.328175      -1.536782       2.280581      -0.120268      -0.675324       0.727649
      5   2   -1.0000       2.511883       4.250712      -3.057902      -0.373031       0.172556      -0.911632
ITEM: TIMESTEP
500
ITEM: NUMBER OF ATOMS
5
ITEM: BOX BOUNDS ff ff ff
-5.00000000    5.00000000     
-5.00000000    5.00000000     
-5.00000000    5.00000000     
ITEM: ATOMS id type q x y z mux muy muz
      1   1    1.0000      -0.981261       3.075161      -3.706752       0.903066      -0.429114      -0.018252
      2   2   -1.0000       4.516402       2.718342       4.288314      -0.425852      -0.287476       0.857909
      3   1    1.0000       1.747101      -1.471526       4.343905       0.346994      -0.693509       0.631380
      4   2   -1.0000      -2.348911      -1.501965       2.348487      -0.153199      -0.660587       0.734952
      5   2   -1.0000       2.475344       4.239678      -3.085733      -0.333594       0.192153      -0.922926
ITEM: TIMESTEP
600
ITEM: NUMBER OF ATOMS
5
ITEM: BOX BOUNDS ff ff ff
-5.00000000    5.00000000     
-5.00000000    5.00000000     
-5.00000000    5.00000000     
ITEM: ATOMS id type q x y z mux muy muz
      1   1    1.0000      -0.951843       3.031722      -3.713688       0.918626      -0.383386       0.095611
      2   2   -1.0000       4.548709       2.758233       4.264234      -0.422456      -0.321196       0.847564
      3   1    1.0000       1.743149      -1.491400       4.335489       0.317254      -0.695940       0.644218
      4   2   -1.0000      -2.369548      -1.467372       2.416339      -0.196349      -0.640348       0.742564
      5   2   -1.0000       2.438208       4.228507      -3.114154      -0.277566       0.220465      -0.935068
ITEM: TIMESTEP
700
ITEM: NUMBER OF ATOMS
5
ITEM: BOX BOUNDS ff ff ff
-5.00000000    5.00000000     
-5.00000000    5.00000000     
-5.00000000    5.00000000     
ITEM: ATOMS id type q x y z mux muy muz
      1   1    1.0000      -0.921747       2.988592      -3.719966       0.918658      -0.317166       0.235527
      2   2   -1.0000       4.580959       2.797835       4.240447      -0.419902      -0.349251       0.837679
      3   1    1.0000       1.739123      -1.510875       4.326801       0.284472      -0.697794       0.657388
      4   2   -1.0000      -2.390066      -1.433026       2.484114      -0.249566      -0.613592       0.749148
      5   2   -1.0000       2.400407       4.217165      -3.143176      -0.204234       0.256856      -0.944623
ITEM: TIMESTEP
800
ITEM: NUMBER OF ATOMS
5
ITEM: BOX BOUNDS ff ff ff
-5.00000000    5.00000000     
-5.00000000    5.00000000     
-5.00000000    5.00000000     
ITEM: ATOMS id type q x y z mux muy muz
      1   1    1.0000      -0.890884       2.945845      -3.725559       0.891106      -0.228791       0.391899
      2   2   -1.0000       4.613133       2.837138       4.216959      -0.418327      -0.371543       0.828830
      3   1    1.0000       1.735012      -1.529945       4.317841       0.250378      -0.698900       0.669962
      4   2   -1.0000      -2.410439      -1.398954       2.551781      -0.310943      -0.579963       0.752966
      5   2   -1.0000       2.361854       4.205608      -3.172801      -0.115723       0.298890      -0.947245
ITEM: TIMESTEP
900
ITEM: NUMBER OF ATOMS
5
ITEM: BOX BOUNDS ff ff ff
-5.00000000    5.00000000     
-5.00000000    5.00000000     
-5.00000000    5.00000000     
ITEM: ATOMS id type q x y z mux muy muz
      1   1    1.0000      -0.859142       2.903570      -3.730450       0.826772      -0.120638       0.549449
      2   2   -1.0000       4.645212       2.876124       4.193775      -0.417724      -0.388596       0.821279
      3   1    1.0000       1.730805      -1.548602       4.308613       0.216580      -0.699264       0.681265
      4   2   -1.0000      -2.430641      -1.365187       2.619301      -0.377588      -0.539756       0.752390
      5   2   -1.0000       2.322442       4.193786      -3.203018      -0.016184       0.343162      -0.939137
ITEM: TIMESTEP
1000
ITEM: NUMBER OF ATOMS
5
ITEM: BOX BOUNDS ff ff ff
-5.00000000    5.00000000     
-5.00000000    5.00000000     
-5.00000000    5.00000000     
ITEM: ATOMS id type q x y z mux muy muz
      1   1    1.0000      -0.826395       2.861865      -3.734641       0.722255       0.001531       0.691625
      2   2   -1.0000       4.677167       2.914771       4.170905      -0.417994      -0.401309       0.815004
      3   1    1.0000       1.726488      -1.566832       4.299117       0.183994      -0.699024       0.691023
      4   2   -1.0000      -2.450637      -1.331760       2.686630      -0.446727      -0.493545       0.746223
      5   2   -1.0000       2.282053       4.181646      -3.233791       0.089843       0.386414      -0.917939
ITEM: TIMESTEP
1100
ITEM: NUMBER OF ATOMS
5
ITEM: BOX BOUNDS ff ff ff
-5.00000000    5.00000000     
-5.00000000    5.00000000     
-5.00000000    5.00000000     
ITEM: ATOMS id type q x y z mux muy muz
      1   1    1.0000      -0.792516       2.820828      -3.738156       0.580151       0.130116       0.804049
      2   2   -1.0000       4.708970       2.953055       4.148360      -0.419009      -0.410612       0.809833
      3   1    1.0000       1.722046      -1.584622       4.289357       0.152840      -0.698345       0.699253
      4   2   -1.0000      -2.470394      -1.298707       2.753719      -0.516209      -0.441878       0.733670
      5   2   -1.0000       2.240570       4.169137      -3.265058       0.198360       0.426032      -0.882695
ITEM: TIMESTEP
1200
ITEM: NUMBER OF ATOMS
5
ITEM: BOX BOUNDS ff ff ff
-5.00000000    5.00000000     
-5.00000000    5.00000000     
-5.00000000    5.00000000     
ITEM: ATOMS id type q x y z mux muy muz
      1   1    1.0000      -0.757387       2.780550      -3.741050       0.407785       0.257081       0.876140
      2   2   -1.0000       4.740591       2.990950       4.126151      -0.420654      -0.417289       0.805556
      3   1    1.0000       1.717463      -1.601958       4.279334       0.122895      -0.697361       0.706105
      4   2   -1.0000      -2.489874      -1.266067       2.820517      -0.584467      -0.385160       0.714178
      5   2   -1.0000       2.197883       4.156216      -3.296731       0.306031       0.460031      -0.833497
ITEM: TIMESTEP
1300
ITEM: NUMBER OF ATOMS
5
ITEM: BOX BOUNDS ff ff ff
-5.00000000    5.00000000     
-5.00000000    5.00000000     
-5.00000000    5.00000000     
ITEM: ATOMS id type q x y z mux muy muz
      1   1    1.0000      -0.720909       2.741101      -3.743400       0.215578       0.374997       0.901612
      2   2   -1.0000       4.771999       3.028431       4.104287      -0.422835      -0.421948       0.801979
      3   1    1.0000       1.712721      -1.618824       4.269051       0.093729      -0.696147       0.711754
      4   2   -1.0000      -2.509039      -1.233876       2.886979      -0.650278      -0.323666       0.687298
      5   2   -1.0000       2.153904       4.142860      -3.328696       0.410011       0.486930      -0.771226
ITEM: TIMESTEP
1400
ITEM: NUMBER OF ATOMS
5
ITEM: BOX BOUNDS ff ff ff
-5.00000000    5.00000000     
-5.00000000    5.00000000     
-5.00000000    5.00000000     
ITEM: ATOMS id type q x y z mux muy muz
      1   1    1.0000      -0.683008       2.702525      -3.745301       0.015476       0.477771       0.878348
      2   2   -1.0000       4.803167       3.065475       4.082777      -0.425478      -0.425041       0.798942
      3   1    1.0000       1.707799      -1.635209       4.258512       0.064851      -0.694724       0.716347
      4   2   -1.0000      -2.527851      -1.202168       2.953061      -0.712543      -0.257615       0.652623
      5   2   -1.0000       2.108568       4.129068      -3.360828       0.507835       0.505679      -0.697418
ITEM: TIMESTEP
1500
ITEM: NUMBER OF ATOMS
5
ITEM: BOX BOUNDS ff ff ff
-5.00000000    5.00000000     
-5.00000000    5.00000000     
-5.00000000    5.00000000     
ITEM: ATOMS id type q x y z mux muy muz
      1   1    1.0000      -0.643643       2.664834      -3.746854      -0.180393       0.561071       0.807872
      2   2   -1.0000       4.834074       3.102064       4.061626      -0.428524      -0.426900       0.796319
      3   1    1.0000       1.702675      -1.651100       4.247720       0.035793      -0.693058       0.719993
      4   2   -1.0000      -2.546274      -1.170974       3.018728      -0.770113      -0.187278       0.609797
      5   2   -1.0000       2.061843       4.114867      -3.392999       0.597399       0.515657      -0.614176
ITEM: TIMESTEP
1600
ITEM: NUMBER OF ATOMS
5
ITEM: BOX BOUNDS ff ff ff
-5.00000000    5.00000000     
-5.00000000    5.00000000     
-5.00000000    5.00000000     
ITEM: ATOMS id type q x y z mux muy muz
      1   1    1.0000      -0.602799       2.628008      -3.748152      -0.360734       0.622470       0.694552
      2   2   -1.0000       4.864700       3.138184       4.040837      -0.431923      -0.427771       0.794012
      3   1    1.0000       1.697324      -1.666488       4.236679       0.006162      -0.691077       0.722755
      4   2   -1.0000      -2.564269      -1.140322       3.083952      -0.821691      -0.113109       0.558597
      5   2   -1.0000       2.013719       4.100309      -3.425096       0.677036       0.516703      -0.524061
ITEM: TIMESTEP
1700
ITEM: NUMBER OF ATOMS
5
ITEM: BOX BOUNDS ff ff ff
-5.00000000    5.00000000     
-5.00000000    5.00000000     
-5.00000000    5.00000000     
ITEM: ATOMS id type q x y z mux muy muz
      1   1    1.0000      -0.560482       2.592000      -3.749261      -0.515706       0.661316       0.544709
      2   2   -1.0000       4.895027       3.173824       4.020411      -0.435624      -0.427843       0.791948
      3   1    1.0000       1.691719      -1.681365       4.225395      -0.024330      -0.688672       0.724665
      4   2   -1.0000      -2.581798      -1.110238       3.148709      -0.865817      -0.035877       0.499073
      5   2   -1.0000       1.964209       4.085470      -3.457033       0.745609       0.509142      -0.429932
ITEM: TIMESTEP
1800
ITEM: NUMBER OF ATOMS
5
ITEM: BOX BOUNDS ff ff ff
-5.00000000    5.00000000     
-5.00000000    5.00000000     
-5.00000000    5.00000000     
ITEM: ATOMS id type q x y z mux muy muz
      1   1    1.0000      -0.516711       2.556751      -3.750214      -0.637142       0.678408       0.365804
      2   2   -1.0000       4.925043       3.208973       4.000348      -0.439575      -0.427262       0.790077
      3   1    1.0000       1.685829      -1.695723       4.213876      -0.055841      -0.685714       0.725726
      4   2   -1.0000      -2.598822      -1.080746       3.212976      -0.900969       0.043223       0.431724
      5   2   -1.0000       1.913336       4.070436      -3.488765       0.802588       0.493774      -0.334724
ITEM: TIMESTEP
1900
ITEM: NUMBER OF ATOMS
5
ITEM: BOX BOUNDS ff ff ff
-5.00000000    5.00000000     
-5.00000000    5.00000000     
-5.00000000    5.00000000     
ITEM: ATOMS id type q x y z mux muy muz
      1   1    1.0000      -0.471507       2.522208      -3.750989      -0.718432       0.675532       0.165869
      2   2   -1.0000       4.954732       3.243620       3.980648      -0.443716      -0.426149       0.788361
      3   1    1.0000       1.679627      -1.709555       4.202132      -0.088379      -0.682062       0.725934
      4   2   -1.0000      -2.615299      -1.051869       3.276726      -0.925775       0.122529       0.357670
      5   2   -1.0000       1.861122       4.055287      -3.520297       0.848057       0.471833      -0.241189
ITEM: TIMESTEP
2000
ITEM: NUMBER OF ATOMS
5
ITEM: BOX BOUNDS ff ff ff
-5.00000000    5.00000000     
-5.00000000    5.00000000     
-5.00000000    5.00000000     
ITEM: ATOMS id type q x y z mux muy muz
      1   1    1.0000      -0.424878       2.488352      -3.751508      -0.754217       0.654965      -0.046665
      2   2   -1.0000       4.984075       3.277748       3.961315      -0.447979      -0.424608       0.786780
      3   1    1.0000       1.673083      -1.722853       4.190181      -0.121805      -0.677586       0.725287
      4   2   -1.0000      -2.631185      -1.023635       3.339921      -0.939314       0.199984       0.278740
      5   2   -1.0000       1.807580       4.040079      -3.551689       0.882645       0.444901      -0.151664
ITEM: TIMESTEP
2100
ITEM: NUMBER OF ATOMS
5
ITEM: BOX BOUNDS ff ff ff
-5.00000000    5.00000000     
-5.00000000    5.00000000     
-5.00000000    5.00000000     
ITEM: ATOMS id type q x y z mux muy muz
      1   1    1.0000      -0.376813       2.455227      -3.751633      -0.740119       0.619058      -0.262661
      2   2   -1.0000       4.986961       3.311332       3.942356      -0.452292      -0.422732       0.785321
      3   1    1.0000       1.666172      -1.735605       4.178046      -0.155845      -0.672177       0.723803
      4   2   -1.0000      -2.646432      -0.996076       3.402505      -0.941439       0.273337       0.197430
      5   2   -1.0000       1.752702       4.024812      -3.583053       0.907371       0.414810      -0.067898
ITEM: TIMESTEP
2200
ITEM: NUMBER OF ATOMS
5
ITEM: BOX BOUNDS ff ff ff
-5.00000000    5.00000000     
-5.00000000    5.00000000     
-5.00000000    5.00000000     
ITEM: ATOMS id type q x y z mux muy muz
      1   1    1.0000      -0.327270       2.422980      -3.751168      -0.672847       0.570000      -0.471568
      2   2   -1.0000       4.958465       3.344340       3.923781      -0.456590      -0.420598       0.783979
      3   1    1.0000       1.658870      -1.747798       4.165755      -0.190125      -0.665765       0.721533
      4   2   -1.0000      -2.660992      -0.969227       3.464404      -0.932991       0.340465       0.116669
      5   2   -1.0000       1.696451       4.009395      -3.614551       0.923467       0.383571       0.009019
ITEM: TIMESTEP
2300
ITEM: NUMBER OF ATOMS
5
ITEM: BOX BOUNDS ff ff ff
-5.00000000    5.00000000     
-5.00000000    5.00000000     
-5.00000000    5.00000000     
ITEM: ATOMS id type q x y z mux muy muz
      1   1    1.0000      -0.276185       2.391897      -3.749880      -0.550997       0.509877      -0.660627
      2   2   -1.0000       4.930488       3.376729       3.905609      -0.460816      -0.418273       0.782749
      3   1    1.0000       1.651162      -1.759418       4.153347      -0.224223      -0.658326       0.718562
      4   2   -1.0000      -2.674813      -0.943131       3.525520      -0.915790       0.399716       0.039430
      5   2   -1.0000       1.638769       3.993614      -3.646374       0.932192       0.353325       0.078615
ITEM: TIMESTEP
2400
ITEM: NUMBER OF ATOMS
5
ITEM: BOX BOUNDS ff ff ff
-5.00000000    5.00000000     
-5.00000000    5.00000000     
-5.00000000    5.00000000     
ITEM: ATOMS id type q x y z mux muy muz
      1   1    1.0000      -0.223485       2.362449      -3.747525      -0.376644       0.441034      -0.814634
      2   2   -1.0000       4.903080       3.408442       3.887862      -0.464918      -0.415812       0.781634
      3   1    1.0000       1.643039      -1.770447       4.140867      -0.257735      -0.649882       0.715001
      4   2   -1.0000      -2.687846      -0.917839       3.585729      -0.892376       0.450175      -0.031738
      5   2   -1.0000       1.579591       3.977087      -3.678712       0.934695       0.326335       0.140890
ITEM: TIMESTEP
2500
ITEM: NUMBER OF ATOMS
5
ITEM: BOX BOUNDS ff ff ff
-5.00000000    5.00000000     
-5.00000000    5.00000000     
-5.00000000    5.00000000     
ITEM: ATOMS id type q x y z mux muy muz
      1   1    1.0000      -0.169108       2.335308      -3.743887      -0.157352       0.366629      -0.916964
      2   2   -1.0000       4.876297       3.439415       3.870566      -0.468856      -0.413252       0.780639
      3   1    1.0000       1.634499      -1.780865       4.128367      -0.290337      -0.640487       0.710972
      4   2   -1.0000      -2.700041      -0.893404       3.644891      -0.865525       0.491757      -0.095084
      5   2   -1.0000       1.518866       3.959237      -3.711716       0.931940       0.305000       0.196117
ITEM: TIMESTEP
2600
ITEM: NUMBER OF ATOMS
5
ITEM: BOX BOUNDS ff ff ff
-5.00000000    5.00000000     
-5.00000000    5.00000000     
-5.00000000    5.00000000     
ITEM: ATOMS id type q x y z mux muy muz
      1   1    1.0000      -0.113045       2.311359      -3.738839       0.092366       0.291134      -0.952213
      2   2   -1.0000       4.850193       3.469583       3.853749      -0.472605      -0.410614       0.779770
      3   1    1.0000       1.625549      -1.790657       4.115903      -0.321844      -0.630200       0.706586
      4   2   -1.0000      -2.711356      -0.869876       3.702856      -0.837750       0.525097      -0.149830
      5   2   -1.0000       1.456596       3.939282      -3.745449       0.924656       0.291860       0.244600
ITEM: TIMESTEP
2700
ITEM: NUMBER OF ATOMS
5
ITEM: BOX BOUNDS ff ff ff
-5.00000000    5.00000000     
-5.00000000    5.00000000     
-5.00000000    5.00000000     
ITEM: ATOMS id type q x y z mux muy muz
      1   1    1.0000      -0.055381       2.291670      -3.732401       0.351252       0.220504      -0.909945
      2   2   -1.0000       4.824819       3.498884       3.837432      -0.476152      -0.407899       0.779036
      3   1    1.0000       1.616201      -1.799812       4.103530      -0.352223      -0.619061       0.701928
      4   2   -1.0000      -2.721757      -0.847299       3.759484      -0.810946       0.551290      -0.196075
      5   2   -1.0000       1.392879       3.916248      -3.779825       0.913298       0.289575       0.286414
ITEM: TIMESTEP
2800
ITEM: NUMBER OF ATOMS
5
ITEM: BOX BOUNDS ff ff ff
-5.00000000    5.00000000     
-5.00000000    5.00000000     
-5.00000000    5.00000000     
ITEM: ATOMS id type q x y z mux muy muz
      1   1    1.0000       0.003654       2.277441      -3.724805       0.593684       0.161851      -0.788254
      2   2   -1.0000       4.800219       3.527263       3.821634      -0.479495      -0.405094       0.778449
      3   1    1.0000       1.606469      -1.808322       4.091303      -0.381576      -0.607066       0.697044
      4   2   -1.0000      -2.731217      -0.825709       3.814642      -0.786302       0.571600      -0.234527
      5   2   -1.0000       1.327952       3.889018      -3.814554       0.897972       0.300865       0.321133
ITEM: TIMESTEP
2900
ITEM: NUMBER OF ATOMS
5
ITEM: BOX BOUNDS ff ff ff
-5.00000000    5.00000000     
-5.00000000    5.00000000     
-5.00000000    5.00000000     
ITEM: ATOMS id type q x y z mux muy muz
      1   1    1.0000       0.063657       2.269928      -3.716549       0.793743       0.122754      -0.595738
      2   2   -1.0000       4.776428       3.554674       3.806368      -0.482633      -0.402174       0.778024
      3   1    1.0000       1.596374      -1.816186       4.079272      -0.410082      -0.594175       0.691946
      4   2   -1.0000      -2.739719      -0.805133       3.868215      -0.764400       0.587232      -0.266179
      5   2   -1.0000       1.262234       3.856409      -3.849085       0.878293       0.328347       0.347547
ITEM: TIMESTEP
3000
ITEM: NUMBER OF ATOMS
5
ITEM: BOX BOUNDS ff ff ff
-5.00000000    5.00000000     
-5.00000000    5.00000000     
-5.00000000    5.00000000     
ITEM: ATOMS id type q x y z mux muy muz
      1   1    1.0000       0.124025       2.270371      -3.708450       0.929746       0.110488      -0.351233
      2   2   -1.0000       4.753478       3.581070       3.791648      -0.485565      -0.399112       0.777776
      3   1    1.0000       1.585939      -1.823403       4.067488      -0.437938      -0.580322       0.686613
      4   2   -1.0000      -2.747252      -0.785595       3.920085      -0.745427       0.599204      -0.292049
      5   2   -1.0000       1.196336       3.817248      -3.882550       0.853179       0.374239       0.363361
ITEM: TIMESTEP
3100
ITEM: NUMBER OF ATOMS
5
ITEM: BOX BOUNDS ff ff ff
-5.00000000    5.00000000     
-5.00000000    5.00000000     
-5.00000000    5.00000000     
ITEM: ATOMS id type q x y z mux muy muz
      1   1    1.0000       0.183969       2.279951      -3.701703       0.987950       0.131515      -0.081596
      2   2   -1.0000       4.731415       3.606393       3.777495      -0.488281      -0.395889       0.777723
      3   1    1.0000       1.575200      -1.829974       4.056006      -0.465287      -0.565446       0.681013
      4   2   -1.0000      -2.753806      -0.767126       3.970110      -0.729360       0.608314      -0.313029
      5   2   -1.0000       1.131067       3.770446      -3.913688       0.820629       0.439808       0.364878
ITEM: TIMESTEP
3200
ITEM: NUMBER OF ATOMS
5
ITEM: BOX BOUNDS ff ff ff
-5.00000000    5.00000000     
-5.00000000    5.00000000     
-5.00000000    5.00000000     
ITEM: ATOMS id type q x y z mux muy muz
      1   1    1.0000       0.242527       2.299790      -3.697981       0.964611       0.191364       0.181401
      2   2   -1.0000       4.710321       3.630541       3.763958      -0.490762      -0.392507       0.777876
      3   1    1.0000       1.564219      -1.835887       4.044903      -0.492155      -0.549539       0.675123
      4   2   -1.0000      -2.759370      -0.749787       4.018057      -0.716107       0.615153      -0.329814
      5   2   -1.0000       1.067414       3.715035      -3.940716       0.777626       0.524486       0.346716
ITEM: TIMESTEP
3300
ITEM: NUMBER OF ATOMS
5
ITEM: BOX BOUNDS ff ff ff
-5.00000000    5.00000000     
-5.00000000    5.00000000     
-5.00000000    5.00000000     
ITEM: ATOMS id type q x y z mux muy muz
      1   1    1.0000       0.298621       2.331039      -3.699637       0.866204       0.294647       0.403576
      2   2   -1.0000       4.690373       3.653309       3.751149      -0.492977      -0.389001       0.778236
      3   1    1.0000       1.553117      -1.841112       4.034299      -0.518381      -0.532714       0.668952
      4   2   -1.0000      -2.763917      -0.733713       4.063485      -0.705582       0.620141      -0.342898
      5   2   -1.0000       1.006506       3.650169      -3.961075       0.720392       0.624484       0.301753
ITEM: TIMESTEP
3400
ITEM: NUMBER OF ATOMS
5
ITEM: BOX BOUNDS ff ff ff
-5.00000000    5.00000000     
-5.00000000    5.00000000     
-5.00000000    5.00000000     
ITEM: ATOMS id type q x y z mux muy muz
      1   1    1.0000       0.351210       2.375116      -3.710048       0.708511       0.443791       0.548691
      2   2   -1.0000       4.671951       3.674263       3.739310      -0.494888      -0.385466       0.778782
      3   1    1.0000       1.542149      -1.845573       4.024423      -0.543530      -0.515309       0.662595
      4   2   -1.0000      -2.767398      -0.719190       4.105493      -0.697723       0.623578      -0.352609
      5   2   -1.0000       0.949481       3.575076      -3.970958       0.645503       0.730857       0.221751
ITEM: TIMESTEP
3500
ITEM: NUMBER OF ATOMS
5
ITEM: BOX BOUNDS ff ff ff
-5.00000000    5.00000000     
-5.00000000    5.00000000     
-5.00000000    5.00000000     
ITEM: ATOMS id type q x y z mux muy muz
      1   1    1.0000       0.399917       2.434341      -3.733985       0.516607       0.632630       0.576973
      2   2   -1.0000       4.655849       3.692511       3.728955      -0.496459      -0.382073       0.779454
      3   1    1.0000       1.531859      -1.849115       4.015725      -0.566805      -0.498020       0.656284
      4   2   -1.0000      -2.769734      -0.706813       4.142246      -0.692466       0.625684      -0.359180
      5   2   -1.0000       0.896911       3.488767      -3.964720       0.552702       0.827367       0.099921
ITEM: TIMESTEP
3600
ITEM: NUMBER OF ATOMS
5
ITEM: BOX BOUNDS ff ff ff
-5.00000000    5.00000000     
-5.00000000    5.00000000     
-5.00000000    5.00000000     
ITEM: ATOMS id type q x y z mux muy muz
      1   1    1.0000       0.443765       2.505574      -3.775026       0.328766       0.829910       0.450736
      2   2   -1.0000       4.643486       3.706465       3.720999      -0.497674      -0.379061       0.780149
      3   1    1.0000       1.523288      -1.851495       4.008990      -0.587135      -0.481914       0.650408
      4   2   -1.0000      -2.770856      -0.697610       4.170489      -0.689617       0.626680      -0.362905
      5   2   -1.0000       0.850113       3.396757      -3.937232       0.450706       0.890541      -0.061657
ITEM: TIMESTEP
3700
ITEM: NUMBER OF ATOMS
5
ITEM: BOX BOUNDS ff ff ff
-5.00000000    5.00000000     
-5.00000000    5.00000000     
-5.00000000    5.00000000     
ITEM: ATOMS id type q x y z mux muy muz
      1   1    1.0000       0.430790       2.451989      -3.816722       0.196928       0.961833       0.189994
      2   2   -1.0000       4.632105       3.719265       3.713675      -0.498592      -0.376616       0.780747
      3   1    1.0000       1.514660      -1.853312       4.002729      -0.603870      -0.467885       0.645310
      4   2   -1.0000      -2.771156      -0.689464       4.196526      -0.688695       0.626856      -0.364350
      5   2   -1.0000       0.860386       3.431213      -3.907986       0.366325       0.902954      -0.224679
ITEM: TIMESTEP
3800
ITEM: NUMBER OF ATOMS
5
ITEM: BOX BOUNDS ff ff ff
-5.00000000    5.00000000     
-5.00000000    5.00000000     
-5.00000000    5.00000000     
ITEM: ATOMS id type q x y z mux muy muz
      1   1    1.0000       0.420146       2.395677      -3.850497       0.124057       0.988691      -0.084264
      2   2   -1.0000       4.623182       3.729273       3.707938      -0.499460      -0.374420       0.781248
      3   1    1.0000       1.507197      -1.854384       3.997760      -0.619387      -0.454189       0.640368
      4   2   -1.0000      -2.770710      -0.683379       4.216991      -0.689003       0.626528      -0.364331
      5   2   -1.0000       0.868916       3.472504      -3.883972       0.316478       0.889331      -0.330049
ITEM: TIMESTEP
3900
ITEM: NUMBER OF ATOMS
5
ITEM: BOX BOUNDS ff ff ff
-5.00000000    5.00000000     
-5.00000000    5.00000000     
-5.00000000    5.00000000     
ITEM: ATOMS id type q x y z mux muy muz