ITEM: TIMESTEP
0
ITEM: NUMBER OF ATOMS
5
ITEM: BOX BOUNDS ff ff ff
-5.00000000    5.00000000     
-5.00000000    5.00000000     
-5.00000000    5.00000000     
ITEM: ATOMS id type q x y z mux muy muz
      1   1    1.0000       4.307327       4.324457       4.693070      -0.401658      -0.083921       0.911936
      2   2   -1.0000      -3.745881      -3.394242       1.767623       0.548106       0.836329      -0.011586
      3   1    1.0000       0.414244      -4.815673      -4.380013      -0.120997       0.953264      -0.276852
      4   2   -1.0000       3.880432       3.688053      -1.427309      -0.372795       0.031603      -0.927375
      5   2   -1.0000       3.910580       0.937379       3.058813      -0.676437      -0.286550       0.678470
ITEM: TIMESTEP
100
ITEM: NUMBER OF ATOMS
5
ITEM: BOX BOUNDS ff ff ff
-5.00000000    5.00000000     
-5.00000000    5.00000000     
-5.00000000    5.00000000     
ITEM: ATOMS id type q x y z mux muy muz
      1   1    1.0000       4.314295       4.342175       4.669614      -0.399823      -0.084869       0.912655
      2   2   -1.0000      -3.712899      -3.376269       1.793136       0.554148       0.832418       0.000726
      3   1    1.0000       0.404158      -4.848863      -4.356235      -0.120067       0.952571      -0.279627
      4   2   -1.0000       3.843233       3.622750      -1.429277      -0.140206      -0.179329      -0.973747
      5   2   -1.0000       3.917915       1.000181       3.034947      -0.671959      -0.285555       0.683322
ITEM: TIMESTEP
200
ITEM: NUMBER OF ATOMS
5
ITEM: BOX BOUNDS ff ff ff
-5.00000000    5.00000000     
-5.00000000    5.00000000     
-5.00000000    5.00000000     
ITEM: ATOMS id type q x y z mux muy muz
      1   1    1.0000       4.321397       4.359592       4.645417      -0.400577      -0.092537       0.911578
      2   2   -1.0000      -3.679819      -3.358296       1.818604       0.559389       0.828801       0.013180
      3   1    1.0000       0.394024      -4.882029      -4.332176      -0.119510       0.952517      -0.280053
      4   2   -1.0000       3.805871       3.557645      -1.431579       0.105970      -0.373897      -0.921397
      5   2   -1.0000       3.925229       1.063062       3.011917      -0.670737      -0.287734       0.683609
ITEM: TIMESTEP
300
ITEM: NUMBER OF ATOMS
5
ITEM: BOX BOUNDS ff ff ff
-5.00000000    5.00000000     
-5.00000000    5.00000000     
-5.00000000    5.00000000     
ITEM: ATOMS id type q x y z mux muy muz
      1   1    1.0000       4.328630       4.376704       4.620467      -0.403836      -0.106595       0.908600
      2   2   -1.0000      -3.646646      -3.340327       1.844024       0.563847       0.825479       0.025716
      3   1    1.0000       0.383839      -4.915162      -4.307837      -0.119335       0.953054      -0.278294
      4   2   -1.0000       3.768331       3.492742      -1.434201       0.340584      -0.532069      -0.775181
      5   2   -1.0000       3.932548       1.126016       2.989732      -0.672776      -0.292983       0.679363
ITEM: TIMESTEP
400
ITEM: NUMBER OF ATOMS
5
ITEM: BOX BOUNDS ff ff ff
-5.00000000    5.00000000     
-5.00000000    5.00000000     
-5.00000000    5.00000000     
ITEM: ATOMS id type q x y z mux muy muz
      1   1    1.0000       4.335990       4.393507       4.594754      -0.409416      -0.126739       0.903502
      2   2   -1.0000      -3.613387      -3.322373       1.869386       0.567545       0.822452       0.038278
      3   1    1.0000       0.373602      -4.948247      -4.283227      -0.119540       0.954124      -0.274514
      4   2   -1.0000       3.730604       3.428041      -1.437124       0.539554      -0.637526      -0.549947
      5   2   -1.0000       3.939893       1.189046       2.968395      -0.677935      -0.301260       0.670557
ITEM: TIMESTEP
500
ITEM: NUMBER OF ATOMS
5
ITEM: BOX BOUNDS ff ff ff
-5.00000000    5.00000000     
-5.00000000    5.00000000     
-5.00000000    5.00000000     
ITEM: ATOMS id type q x y z mux muy muz
      1   1    1.0000       4.343476       4.409985       4.568274      -0.417041      -0.152693       0.895970
      2   2   -1.0000      -3.580056      -3.304443       1.894681       0.570512       0.819716       0.050817
      3   1    1.0000       0.363314      -4.981264      -4.258358      -0.120110       0.955657      -0.268873
      4   2   -1.0000       3.692691       3.363533      -1.440322       0.682583      -0.679520      -0.268946
      5   2   -1.0000       3.947276       1.252164       2.947908      -0.685932      -0.312588       0.657104
ITEM: TIMESTEP
600
ITEM: NUMBER OF ATOMS
5
ITEM: BOX BOUNDS ff ff ff
-5.00000000    5.00000000     
-5.00000000    5.00000000     
-5.00000000    5.00000000     
ITEM: ATOMS id type q x y z mux muy muz
      1   1    1.0000       4.351088       4.426120       4.541026      -0.426354      -0.184228       0.885597
      2   2   -1.0000      -3.546668      -3.286550       1.919895       0.572780       0.817262       0.063297
      3   1    1.0000       0.352981      -4.985787      -4.233243      -0.121015       0.957583      -0.261516
      4   2   -1.0000       3.654603       3.299203      -1.443765       0.755433      -0.654077       0.038787
      5   2   -1.0000       3.954697       1.315389       2.928272      -0.696349      -0.327057       0.638852
ITEM: TIMESTEP
700
ITEM: NUMBER OF ATOMS
5
ITEM: BOX BOUNDS ff ff ff
-5.00000000    5.00000000     
-5.00000000    5.00000000     
-5.00000000    5.00000000     
ITEM: ATOMS id type q x y z mux muy muz
      1   1    1.0000       4.358828       4.441881       4.513013      -0.436923      -0.221167       0.871885
      2   2   -1.0000      -3.513251      -3.268709       1.945007       0.574390       0.815074       0.075701
      3   1    1.0000       0.342612      -4.952739      -4.207908      -0.122212       0.959831      -0.252566
      4   2   -1.0000       3.616372       3.235051      -1.447428       0.751461      -0.564368       0.341753
      5   2   -1.0000       3.962140       1.378732       2.909499      -0.708646      -0.344807       0.615573
ITEM: TIMESTEP
800
ITEM: NUMBER OF ATOMS
5
ITEM: BOX BOUNDS ff ff ff
-5.00000000    5.00000000     
-5.00000000    5.00000000     
-5.00000000    5.00000000     
ITEM: ATOMS id type q x y z mux muy muz
      1   1    1.0000       4.366702       4.457226       4.484240      -0.448247      -0.263377       0.854229
      2   2   -1.0000      -3.479838      -3.250940       1.969991       0.575387       0.813130       0.088025
      3   1    1.0000       0.332221      -4.919575      -4.182377      -0.123647       0.962336      -0.242118
      4   2   -1.0000       3.578041       3.171082      -1.451285       0.672217      -0.420219       0.609541
      5   2   -1.0000       3.969575       1.442206       2.891615      -0.722167      -0.366011       0.586950
ITEM: TIMESTEP
900
ITEM: NUMBER OF ATOMS
5
ITEM: BOX BOUNDS ff ff ff
-5.00000000    5.00000000     
-5.00000000    5.00000000     
-5.00000000    5.00000000     
ITEM: ATOMS id type q x y z mux muy muz
      1   1    1.0000       4.374721       4.472112       4.454695      -0.459762      -0.310761       0.831893
      2   2   -1.0000      -3.446452      -3.233252       1.994830       0.575818       0.811404       0.100285
      3   1    1.0000       0.321820      -4.886311      -4.156669      -0.125258       0.965037      -0.230247
      4   2   -1.0000       3.539651       3.107283      -1.455328       0.527036      -0.236836       0.816175
      5   2   -1.0000       3.976962       1.505848       2.874656      -0.736160      -0.390847       0.552546
ITEM: TIMESTEP
1000
ITEM: NUMBER OF ATOMS
5
ITEM: BOX BOUNDS ff ff ff
-5.00000000    5.00000000     
-5.00000000    5.00000000     
-5.00000000    5.00000000     
ITEM: ATOMS id type q x y z mux muy muz
      1   1    1.0000       4.382902       4.486484       4.424352      -0.470825      -0.363216       0.803989
      2   2   -1.0000      -3.413114      -3.215656       2.019508       0.575726       0.809865       0.112505
      3   1    1.0000       0.311422      -4.852962      -4.130801      -0.126981       0.967875      -0.217009
      4   2   -1.0000       3.501242       3.043647      -1.459558       0.331728      -0.032941       0.942800
      5   2   -1.0000       3.984250       1.569702       2.858683      -0.749761      -0.419456       0.511776
ITEM: TIMESTEP
1100
ITEM: NUMBER OF ATOMS
5
ITEM: BOX BOUNDS ff ff ff
-5.00000000    5.00000000     
-5.00000000    5.00000000     
-5.00000000    5.00000000     
ITEM: ATOMS id type q x y z mux muy muz
      1   1    1.0000       4.391266       4.500273       4.393173      -0.480701      -0.420570       0.769446
      2   2   -1.0000      -3.379846      -3.198161       2.044007       0.575152       0.808483       0.124718
      3   1    1.0000       0.301040      -4.819545      -4.104789      -0.128750       0.970793      -0.202445
      4   2   -1.0000       3.462855       2.980175      -1.463993       0.106567       0.171426       0.979416
      5   2   -1.0000       3.991387       1.633818       2.843787      -0.761977      -0.451882       0.463889
ITEM: TIMESTEP
1200
ITEM: NUMBER OF ATOMS
5
ITEM: BOX BOUNDS ff ff ff
-5.00000000    5.00000000     
-5.00000000    5.00000000     
-5.00000000    5.00000000     
ITEM: ATOMS id type q x y z mux muy muz
      1   1    1.0000       4.399836       4.513392       4.361099      -0.488536      -0.482479       0.727012
      2   2   -1.0000      -3.346670      -3.180778       2.068309       0.574133       0.807226       0.136959
      3   1    1.0000       0.290688      -4.786081      -4.078649      -0.130506       0.973731      -0.186590
      4   2   -1.0000       3.424527       2.916879      -1.468664      -0.126122       0.357132       0.925500
      5   2   -1.0000       3.998321       1.698256       2.830089      -0.771633      -0.487991       0.407979
ITEM: TIMESTEP
1300
ITEM: NUMBER OF ATOMS
5
ITEM: BOX BOUNDS ff ff ff
-5.00000000    5.00000000     
-5.00000000    5.00000000     
-5.00000000    5.00000000     
ITEM: ATOMS id type q x y z mux muy muz
      1   1    1.0000       4.408635       4.525730       4.328055      -0.493329      -0.548289       0.675282
      2   2   -1.0000      -3.313610      -3.163515       2.092394       0.572700       0.806063       0.149257
      3   1    1.0000       0.280379      -4.752592      -4.052397      -0.132195       0.976626      -0.169488
      4   2   -1.0000       3.386290       2.853790      -1.473612      -0.344484       0.507959       0.789499
      5   2   -1.0000       4.005007       1.763085       2.817744      -0.777313      -0.527364       0.343033
ITEM: TIMESTEP
1400
ITEM: NUMBER OF ATOMS
5
ITEM: BOX BOUNDS ff ff ff
-5.00000000    5.00000000     
-5.00000000    5.00000000     
-5.00000000    5.00000000     
ITEM: ATOMS id type q x y z mux muy muz
      1   1    1.0000       4.417682       4.537143       4.293944      -0.493920      -0.616871       0.612792
      2   2   -1.0000      -3.280695      -3.146388       2.116239       0.570881       0.804965       0.161636
      3   1    1.0000       0.270127      -4.719111      -4.026053      -0.133773       0.979411      -0.151194
      4   2   -1.0000       3.348172       2.790951      -1.478881      -0.529448       0.612145       0.587336
      5   2   -1.0000       4.011415       1.828389       2.806936      -0.777301      -0.569161       0.268065
ITEM: TIMESTEP
1500
ITEM: NUMBER OF ATOMS
5
ITEM: BOX BOUNDS ff ff ff
-5.00000000    5.00000000     
-5.00000000    5.00000000     
-5.00000000    5.00000000     
ITEM: ATOMS id type q x y z mux muy muz
      1   1    1.0000       4.426989       4.547448       4.258654      -0.489011      -0.686460       0.538182
      2   2   -1.0000      -3.247962      -3.129414       2.139812       0.568699       0.803909       0.174104
      3   1    1.0000       0.259946      -4.685677      -3.999645      -0.135213       0.982013      -0.131789
      4   2   -1.0000       3.310202       2.728430      -1.484506      -0.666586       0.663322       0.340098
      5   2   -1.0000       4.017527       1.894273       2.797870      -0.769562      -0.611988       0.182332
ITEM: TIMESTEP
1600
ITEM: NUMBER OF ATOMS
5
ITEM: BOX BOUNDS ff ff ff
-5.00000000    5.00000000     
-5.00000000    5.00000000     
-5.00000000    5.00000000     
ITEM: ATOMS id type q x y z mux muy muz
      1   1    1.0000       4.436549       4.556411       4.222059      -0.477242      -0.754539       0.450456
      2   2   -1.0000      -3.215460      -3.112618       2.163075       0.566174       0.802873       0.186659
      3   1    1.0000       0.249852      -4.652346      -3.973207      -0.136503       0.984359      -0.111378
      4   2   -1.0000       3.272414       2.666314      -1.490508      -0.747260       0.660701       0.071255
      5   2   -1.0000       4.023346       1.960866       2.790766      -0.751806      -0.653800       0.085640
ITEM: TIMESTEP
1700
ITEM: NUMBER OF ATOMS
5
ITEM: BOX BOUNDS ff ff ff
-5.00000000    5.00000000     
-5.00000000    5.00000000     
-5.00000000    5.00000000     
ITEM: ATOMS id type q x y z mux muy muz
      1   1    1.0000       4.446331       4.563736       4.184031      -0.457326      -0.817834       0.349287
      2   2   -1.0000      -3.183249      -3.096032       2.185979       0.563322       0.801843       0.199289
      3   1    1.0000       0.239863      -4.619189      -3.946788      -0.137650       0.986376      -0.090081
      4   2   -1.0000       3.234860       2.604720      -1.496883      -0.768909       0.608505      -0.196216
      5   2   -1.0000       4.028895       2.028329       2.785845      -0.721678      -0.691901      -0.021287
ITEM: TIMESTEP
1800
ITEM: NUMBER OF ATOMS
5
ITEM: BOX BOUNDS ff ff ff
-5.00000000    5.00000000     
-5.00000000    5.00000000     
-5.00000000    5.00000000     
ITEM: ATOMS id type q x y z mux muy muz
      1   1    1.0000       4.456272       4.569062       4.144449      -0.428252      -0.872476       0.235342
      2   2   -1.0000      -3.151408      -3.079697       2.208465       0.560152       0.800807       0.211984
      3   1    1.0000       0.230000      -4.586292      -3.920448      -0.138677       0.987999      -0.068020
      4   2   -1.0000       3.197616       2.543795      -1.503600      -0.734437       0.514754      -0.442301
      5   2   -1.0000       4.034222       2.096853       2.783318      -0.677105      -0.723117      -0.136492
ITEM: TIMESTEP
1900
ITEM: NUMBER OF ATOMS
5
ITEM: BOX BOUNDS ff ff ff
-5.00000000    5.00000000     
-5.00000000    5.00000000     
-5.00000000    5.00000000     
ITEM: ATOMS id type q x y z mux muy muz
      1   1    1.0000       4.466257       4.571956       4.103219      -0.389523      -0.914362       0.110518
      2   2   -1.0000      -3.120032      -3.063664       2.230460       0.556668       0.799757       0.224744
      3   1    1.0000       0.220286      -4.553763      -3.894264      -0.139624       0.989168      -0.045291
      4   2   -1.0000       3.160788       2.483719      -1.510596      -0.650868       0.389644      -0.651574
      5   2   -1.0000       4.039402       2.166661       2.783365      -0.616745      -0.744160      -0.256615
ITEM: TIMESTEP
2000
ITEM: NUMBER OF ATOMS
5
ITEM: BOX BOUNDS ff ff ff
-5.00000000    5.00000000     
-5.00000000    5.00000000     
-5.00000000    5.00000000     
ITEM: ATOMS id type q x y z mux muy muz
      1   1    1.0000       4.476114       4.571919       4.060295      -0.341372      -0.939671      -0.021990
      2   2   -1.0000      -3.089232      -3.047993       2.251883       0.552860       0.798684       0.237592
      3   1    1.0000       0.210749      -4.521725      -3.868330      -0.140540       0.989832      -0.021941
      4   2   -1.0000       3.124522       2.424709      -1.517787      -0.527599       0.243924      -0.813720
      5   2   -1.0000       4.044549       2.237999       2.786124      -0.540459      -0.752172      -0.377016
ITEM: TIMESTEP
2100
ITEM: NUMBER OF ATOMS
5
ITEM: BOX BOUNDS ff ff ff
-5.00000000    5.00000000     
-5.00000000    5.00000000     
-5.00000000    5.00000000     
ITEM: ATOMS id type q x y z mux muy muz
      1   1    1.0000       4.485601       4.568402       4.015706      -0.284918      -0.945466      -0.157846
      2   2   -1.0000      -3.059136      -3.032751       2.272642       0.548701       0.797581       0.250584
      3   1    1.0000       0.201420      -4.490317      -3.842754      -0.141482       0.989939       0.002061
      4   2   -1.0000       3.088996       2.367016      -1.525076      -0.374732       0.087614      -0.922984
      5   2   -1.0000       4.049821       2.311123       2.791666      -0.449649      -0.745344      -0.492217
ITEM: TIMESTEP
2200
ITEM: NUMBER OF ATOMS
5
ITEM: BOX BOUNDS ff ff ff
-5.00000000    5.00000000     
-5.00000000    5.00000000     
-5.00000000    5.00000000     
ITEM: ATOMS id type q x y z mux muy muz
      1   1    1.0000       4.494400       4.560831       3.969581      -0.222207      -0.930264      -0.291946
      2   2   -1.0000      -3.029885      -3.018012       2.292640       0.544145       0.796434       0.263816
      3   1    1.0000       0.192335      -4.459693      -3.817657      -0.142508       0.989430       0.026837
      4   2   -1.0000       3.054416       2.310919      -1.532360      -0.201842      -0.070667      -0.976865
      5   2   -1.0000       4.055436       2.386283       2.799981      -0.347350      -0.723467      -0.596610
ITEM: TIMESTEP
2300
ITEM: NUMBER OF ATOMS
5
ITEM: BOX BOUNDS ff ff ff
-5.00000000    5.00000000     
-5.00000000    5.00000000     
-5.00000000    5.00000000     
ITEM: ATOMS id type q x y z mux muy muz
      1   1    1.0000       4.502115       4.548636       3.922169      -0.156156      -0.894480      -0.418952
      2   2   -1.0000      -3.001626      -3.003853       2.311774       0.539122       0.795225       0.277424
      3   1    1.0000       0.183530      -4.430010      -3.793170      -0.143675       0.988226       0.052603
      4   2   -1.0000       3.021008       2.256716      -1.539544      -0.017474      -0.223693      -0.974503
      5   2   -1.0000       4.061673       2.463696       2.810956      -0.238038      -0.688289      -0.685271
ITEM: TIMESTEP
2400
ITEM: NUMBER OF ATOMS
5
ITEM: BOX BOUNDS ff ff ff
-5.00000000    5.00000000     
-5.00000000    5.00000000     
-5.00000000    5.00000000     
ITEM: ATOMS id type q x y z mux muy muz
      1   1    1.0000       4.508282       4.531286       3.873854      -0.090420      -0.840712      -0.533880
      2   2   -1.0000      -2.974510      -2.990353       2.329944       0.533535       0.793928       0.291580
      3   1    1.0000       0.175046      -4.401431      -3.769430      -0.145040       0.986214       0.079661
      4   2   -1.0000       2.989000       2.204713      -1.546545       0.170570      -0.364992      -0.915252
      5   2   -1.0000       4.068883       2.543534       2.824361      -0.127231      -0.643651      -0.754670
ITEM: TIMESTEP
2500
ITEM: NUMBER OF ATOMS
5
ITEM: BOX BOUNDS ff ff ff
-5.00000000    5.00000000     
-5.00000000    5.00000000     
-5.00000000    5.00000000     
ITEM: ATOMS id type q x y z mux muy muz
      1   1    1.0000       4.512369       4.508316       3.825155      -0.029251      -0.773898      -0.632634
      2   2   -1.0000      -2.948686      -2.977587       2.347056       0.527260       0.792510       0.306472
      3   1    1.0000       0.166923      -4.374112      -3.746576      -0.146650       0.983236       0.108358
      4   2   -1.0000       2.958609       2.155209      -1.553298       0.354147      -0.487719      -0.797941
      5   2   -1.0000       4.077486       2.625912       2.839847      -0.021033      -0.595435      -0.803128
ITEM: TIMESTEP
2600
ITEM: NUMBER OF ATOMS
5
ITEM: BOX BOUNDS ff ff ff
-5.00000000    5.00000000     
-5.00000000    5.00000000     
-5.00000000    5.00000000     
ITEM: ATOMS id type q x y z mux muy muz
      1   1    1.0000       4.513787       4.479316       3.776713       0.022598      -0.701394      -0.712416
      2   2   -1.0000      -2.924299      -2.965627       2.363019       0.520166       0.790930       0.322269
      3   1    1.0000       0.159203      -4.348209      -3.724749      -0.148543       0.979088       0.139005
      4   2   -1.0000       2.930037       2.108491      -1.559751       0.523007      -0.583316      -0.621455
      5   2   -1.0000       4.087975       2.710895       2.856952       0.074203      -0.551428      -0.830916
ITEM: TIMESTEP
2700
ITEM: NUMBER OF ATOMS
5
ITEM: BOX BOUNDS ff ff ff
-5.00000000    5.00000000     
-5.00000000    5.00000000     
-5.00000000    5.00000000     
ITEM: ATOMS id type q x y z mux muy muz
      1   1    1.0000       4.511875       4.443897       3.729273       0.059904      -0.632955      -0.771868
      2   2   -1.0000      -2.901500      -2.954545       2.377744       0.512140       0.789150       0.339049
      3   1    1.0000       0.151931      -4.323878      -3.704100      -0.150727       0.973545       0.171733
      4   2   -1.0000       2.903474       2.064843      -1.565858       0.662893      -0.640615      -0.387538
      5   2   -1.0000       4.100923       2.798528       2.875126       0.151956      -0.521062      -0.839883
ITEM: TIMESTEP
2800
ITEM: NUMBER OF ATOMS
5
ITEM: BOX BOUNDS ff ff ff
-5.00000000    5.00000000     
-5.00000000    5.00000000     
-5.00000000    5.00000000     
ITEM: ATOMS id type q x y z mux muy muz
      1   1    1.0000       4.505864       4.401576       3.683652       0.076986      -0.580349      -0.810721
      2   2   -1.0000      -2.880461      -2.944421       2.391130       0.503158       0.787147       0.356695
      3   1    1.0000       0.145165      -4.301305      -3.684807      -0.153165       0.966435       0.206259
      4   2   -1.0000       2.879119       2.024592      -1.571568       0.755144      -0.646869      -0.106384
      5   2   -1.0000       4.117014       2.888901       2.893778       0.205306      -0.514731      -0.832407
ITEM: TIMESTEP
2900
ITEM: NUMBER OF ATOMS
5
ITEM: BOX BOUNDS ff ff ff
-5.00000000    5.00000000     
-5.00000000    5.00000000     
-5.00000000    5.00000000     
ITEM: ATOMS id type q x y z mux muy muz
      1   1    1.0000       4.494800       4.351553       3.640676       0.067895      -0.555946      -0.828441
      2   2   -1.0000      -2.861426      -2.935365       2.403039       0.493371       0.784940       0.374772
      3   1    1.0000       0.138990      -4.280752      -3.667121      -0.155750       0.957783       0.241647
      4   2   -1.0000       2.857237       1.988184      -1.576808       0.780903      -0.592777       0.196993
      5   2   -1.0000       4.137102       2.982271       2.912398       0.226500      -0.541898      -0.809348
ITEM: TIMESTEP
3000
ITEM: NUMBER OF ATOMS
5
ITEM: BOX BOUNDS ff ff ff
-5.00000000    5.00000000     
-5.00000000    5.00000000     
-5.00000000    5.00000000     
ITEM: ATOMS id type q x y z mux muy muz
      1   1    1.0000       4.477433       4.292289       3.600926       0.027249      -0.569427      -0.821590
      2   2   -1.0000      -2.844778      -2.927548       2.413253       0.483174       0.782618       0.392495
      3   1    1.0000       0.133542      -4.262640      -3.651436      -0.158302       0.947965       0.276230
      4   2   -1.0000       2.838236       1.956335      -1.581457       0.731725      -0.481223       0.482704
      5   2   -1.0000       4.162269       3.079317       2.930898       0.206872      -0.606984      -0.767316
ITEM: TIMESTEP
3100
ITEM: NUMBER OF ATOMS
5
ITEM: BOX BOUNDS ff ff ff
-5.00000000    5.00000000     
-5.00000000    5.00000000     
-5.00000000    5.00000000     
ITEM: ATOMS id type q x y z mux muy muz
      1   1    1.0000       4.452271       4.220699       3.563749      -0.047069      -0.622202      -0.781440
      2   2   -1.0000      -2.831124      -2.921236       2.421432       0.473180       0.780340       0.408865
      3   1    1.0000       0.129037      -4.247645      -3.638367      -0.160608       0.937758       0.307921
      4   2   -1.0000       2.822765       1.930189      -1.585326       0.620650      -0.332937       0.709892
      5   2   -1.0000       4.193753       3.181774       2.950697       0.138826      -0.702728      -0.697782
ITEM: TIMESTEP
3200
ITEM: NUMBER OF ATOMS
5
ITEM: BOX BOUNDS ff ff ff
-5.00000000    5.00000000     
-5.00000000    5.00000000     
-5.00000000    5.00000000     
ITEM: ATOMS id type q x y z mux muy muz
      1   1    1.0000       4.418847       4.132557       3.525146      -0.147408      -0.701035      -0.697725
      2   2   -1.0000      -2.821234      -2.916755       2.427165       0.464008       0.778283       0.423052
      3   1    1.0000       0.125750      -4.236650      -3.628722      -0.162496       0.928100       0.335000
      4   2   -1.0000       2.811649       1.911220      -1.588170       0.479841      -0.179093       0.858882
      5   2   -1.0000       4.231691       3.292147       2.976765       0.022784      -0.804076      -0.594090
ITEM: TIMESTEP
3300
ITEM: NUMBER OF ATOMS
5
ITEM: BOX BOUNDS ff ff ff
-5.00000000    5.00000000     
-5.00000000    5.00000000     
-5.00000000    5.00000000     
ITEM: ATOMS id type q x y z mux muy muz
      1   1    1.0000       4.403512       4.133226       3.547623      -0.245116      -0.776710      -0.580207
      2   2   -1.0000      -2.814614      -2.913839       2.430820       0.455838       0.776520       0.435004
      3   1    1.0000       0.123536      -4.229160      -3.622099      -0.163929       0.919478       0.357333
      4   2   -1.0000       2.804273       1.898481      -1.590106       0.338690      -0.041126       0.939999
      5   2   -1.0000       4.249994       3.306239       2.945947      -0.118067      -0.872386      -0.474345
ITEM: TIMESTEP
3400
ITEM: NUMBER OF ATOMS
5
ITEM: BOX BOUNDS ff ff ff
-5.00000000    5.00000000     
-5.00000000    5.00000000     
-5.00000000    5.00000000     
ITEM: ATOMS id type q x y z mux muy muz
      1   1    1.0000       4.399508       4.179040       3.595903      -0.309238      -0.828293      -0.467228
      2   2   -1.0000      -2.808211      -2.911114       2.434140       0.447483       0.774784       0.446620
      3   1    1.0000       0.121390      -4.221760      -3.615505      -0.165087       0.910763       0.378492
      4   2   -1.0000       2.797193       1.886109      -1.592019       0.191293       0.092222       0.977191
      5   2   -1.0000       4.256822       3.274553       2.889664      -0.245929      -0.893068      -0.376760
ITEM: TIMESTEP
3500
ITEM: NUMBER OF ATOMS
5
ITEM: BOX BOUNDS ff ff ff
-5.00000000    5.00000000     
-5.00000000    5.00000000     
-5.00000000    5.00000000     
ITEM: ATOMS id type q x y z mux muy muz
      1   1    1.0000       4.388826       4.213242       3.633697      -0.333959      -0.862773      -0.379597
      2   2   -1.0000      -2.793632      -2.905058       2.441347       0.436894       0.772581       0.460698
      3   1    1.0000       0.116514      -4.204652      -3.600176      -0.166121       0.899758       0.403532
      4   2   -1.0000       2.781124       1.857847      -1.596455       0.006345       0.247276       0.968924
      5   2   -1.0000       4.273869       3.272272       2.833771      -0.352792      -0.879281      -0.320003
ITEM: TIMESTEP
3600
ITEM: NUMBER OF ATOMS
5
ITEM: BOX BOUNDS ff ff ff
-5.00000000    5.00000000     
-5.00000000    5.00000000     
-5.00000000    5.00000000     
ITEM: ATOMS id type q x y z mux muy muz
      1   1    1.0000       4.374900       4.233972       3.648980      -0.311114      -0.885234      -0.345788
      2   2   -1.0000      -2.766667      -2.893982       2.454372       0.423790       0.769714       0.477432
      3   1    1.0000       0.107522      -4.172775      -3.571547      -0.166837       0.885976       0.432680
      4   2   -1.0000       2.751414       1.805480      -1.604741      -0.214084       0.414817       0.884361
      5   2   -1.0000       4.299531       3.310370       2.785121      -0.421222      -0.845027      -0.329396
ITEM: TIMESTEP
3700
ITEM: NUMBER OF ATOMS
5
ITEM: BOX BOUNDS ff ff ff
-5.00000000    5.00000000     
-5.00000000    5.00000000     
-5.00000000    5.00000000     
ITEM: ATOMS id type q x y z mux muy muz
      1   1    1.0000       4.366211       4.233686       3.628167      -0.240396      -0.892085      -0.382614
      2   2   -1.0000      -2.734815      -2.880992       2.469519       0.409856       0.766422       0.494586
      3   1    1.0000       0.096937      -4.134938      -3.537506      -0.166961       0.871046       0.461956
      4   2   -1.0000       2.716307       1.743547      -1.614592      -0.424622       0.554172       0.715954
      5   2   -1.0000       4.322061       3.379982       2.766596      -0.431648      -0.801579      -0.413704
ITEM: TIMESTEP
3800
ITEM: NUMBER OF ATOMS
5
ITEM: BOX BOUNDS ff ff ff
-5.00000000    5.00000000     
-5.00000000    5.00000000     
-5.00000000    5.00000000     
ITEM: ATOMS id type q x y z mux muy muz
      1   1    1.0000       4.367072       4.208919       3.568588      -0.131151      -0.867705      -0.479466
      2   2   -1.0000      -2.705647      -2.869174       2.483175       0.397044       0.763142       0.509873
      3   1    1.0000       0.087287      -4.100127      -3.506124      -0.166444       0.857129       0.487470
      4   2   -1.0000       2.684134       1.686767      -1.623655      -0.581221       0.637734       0.505448
      5   2   -1.0000       4.333855       3.468088       2.790200      -0.372756      -0.745903      -0.551980
ITEM: TIMESTEP
3900
ITEM: NUMBER OF ATOMS
5
ITEM: BOX BOUNDS ff ff ff
-5.00000000    5.00000000     
-5.00000000    5.00000000     
-5.00000000    5.00000000     
ITEM: ATOMS id type q x y z mux muy muz