ITEM: TIMESTEP
0
ITEM: NUMBER OF ATOMS
5
ITEM: BOX BOUNDS ff ff ff
-5.00000000    5.00000000     
-5.00000000    5.00000000     
-5.00000000    5.00000000     
ITEM: ATOMS id type q x y z mux muy muz
      1   1    1.0000       4.579707       0.030548      -4.170866      -0.474373       0.469785      -0.744495
      2   2   -1.0000       1.199623      -1.597991       3.558741       0.672188      -0.058772       0.738044
      3   1    1.0000      -0.653005      -3.071410      -3.088913      -0.692902      -0.676118      -0.250500
      4   2   -1.0000       2.687247      -2.343777       2.672399      -0.038248      -0.424440      -0.904648
      5   2   -1.0000      -2.940469      -1.783279      -0.344705       0.517034      -0.371534       0.771128
ITEM: TIMESTEP
100
ITEM: NUMBER OF ATOMS
5
ITEM: BOX BOUNDS ff ff ff
-5.00000000    5.00000000     
-5.00000000    5.00000000     
-5.00000000    5.00000000     
ITEM: ATOMS id type q x y z mux muy muz
      1   1    1.0000       4.571016       0.012782      -4.171873      -0.448489       0.442098      -0.776793
      2   2   -1.0000       1.159236      -1.619983       3.506408       0.697878      -0.074720       0.712308
      3   1    1.0000      -0.631853      -3.051784      -3.085381      -0.825176      -0.495857      -0.270575
      4   2   -1.0000       2.649262      -2.309189       2.680095      -0.052547      -0.422743      -0.904725
      5   2   -1.0000      -2.874558      -1.797734      -0.302591       0.544399      -0.395359       0.739811
ITEM: TIMESTEP
200
ITEM: NUMBER OF ATOMS
5
ITEM: BOX BOUNDS ff ff ff
-5.00000000    5.00000000     
-5.00000000    5.00000000     
-5.00000000    5.00000000     
ITEM: ATOMS id type q x y z mux muy muz
      1   1    1.0000       4.562372      -0.004813      -4.172614      -0.417846       0.408747      -0.811375
      2   2   -1.0000       1.116827      -1.641792       3.451764       0.751000      -0.104207       0.652027
      3   1    1.0000      -0.611371      -3.031869      -3.080980      -0.916252      -0.298003      -0.267724
      4   2   -1.0000       2.614210      -2.274965       2.690245      -0.094652      -0.412470      -0.906041
      5   2   -1.0000      -2.808934      -1.812470      -0.261758       0.568926      -0.413297       0.710991
ITEM: TIMESTEP
300
ITEM: NUMBER OF ATOMS
5
ITEM: BOX BOUNDS ff ff ff
-5.00000000    5.00000000     
-5.00000000    5.00000000     
-5.00000000    5.00000000     
ITEM: ATOMS id type q x y z mux muy muz
      1   1    1.0000       4.553816      -0.022176      -4.173091      -0.382483       0.369756      -0.846751
      2   2   -1.0000       1.073549      -1.663631       3.394830       0.820849      -0.142792       0.553007
      3   1    1.0000      -0.591668      -3.011755      -3.075665      -0.964302      -0.101606      -0.244538
      4   2   -1.0000       2.581216      -2.240929       2.702994      -0.161448      -0.392615      -0.905422
      5   2   -1.0000      -2.743810      -1.827416      -0.222410       0.589258      -0.424354       0.687531
ITEM: TIMESTEP
400
ITEM: NUMBER OF ATOMS
5
ITEM: BOX BOUNDS ff ff ff
-5.00000000    5.00000000     
-5.00000000    5.00000000     
-5.00000000    5.00000000     
ITEM: ATOMS id type q x y z mux muy muz
      1   1    1.0000       4.545376      -0.039281      -4.173317      -0.342591       0.325395      -0.881334
      2   2   -1.0000       1.030797      -1.685680       3.335885       0.889898      -0.183024       0.417833
      3   1    1.0000      -0.572813      -2.991502      -3.069391      -0.975386       0.079011      -0.205863
      4   2   -1.0000       2.549017      -2.206919       2.718145      -0.244661      -0.363282      -0.898981
      5   2   -1.0000      -2.679274      -1.842527      -0.184664       0.604618      -0.428393       0.671503
ITEM: TIMESTEP
500
ITEM: NUMBER OF ATOMS
5
ITEM: BOX BOUNDS ff ff ff
-5.00000000    5.00000000     
-5.00000000    5.00000000     
-5.00000000    5.00000000     
ITEM: ATOMS id type q x y z mux muy muz
      1   1    1.0000       4.537052      -0.056152      -4.173303      -0.297784       0.275363      -0.914057
      2   2   -1.0000       0.989764      -1.707991       3.275512       0.941738      -0.217104       0.256894
      3   1    1.0000      -0.554813      -2.971106      -3.062098      -0.958637       0.237925      -0.156224
      4   2   -1.0000       2.516306      -2.172859       2.735052      -0.334096      -0.325925      -0.884394
      5   2   -1.0000      -2.615205      -1.857801      -0.148506       0.614838      -0.425871       0.663783
ITEM: TIMESTEP
600
ITEM: NUMBER OF ATOMS
5
ITEM: BOX BOUNDS ff ff ff
-5.00000000    5.00000000     
-5.00000000    5.00000000     
-5.00000000    5.00000000     
ITEM: ATOMS id type q x y z mux muy muz
      1   1    1.0000       4.528813      -0.072870      -4.173065      -0.246578       0.218185      -0.944243
      2   2   -1.0000       0.951015      -1.730457       3.214521       0.967191      -0.239337       0.085200
      3   1    1.0000      -0.537621      -2.950496      -3.053702      -0.921739       0.375099      -0.098475
      4   2   -1.0000       2.482168      -2.138796       2.752705      -0.421108      -0.282827      -0.861787
      5   2   -1.0000      -2.551272      -1.873290      -0.113802       0.619947      -0.417290       0.664480
ITEM: TIMESTEP
700
ITEM: NUMBER OF ATOMS
5
ITEM: BOX BOUNDS ff ff ff
-5.00000000    5.00000000     
-5.00000000    5.00000000     
-5.00000000    5.00000000     
ITEM: ATOMS id type q x y z mux muy muz
      1   1    1.0000       4.520614      -0.089550      -4.172612      -0.186376       0.151205      -0.970773
      2   2   -1.0000       0.914275      -1.752867       3.153757       0.965585      -0.247035      -0.081360
      3   1    1.0000      -0.521158      -2.929551      -3.044091      -0.869936       0.491971      -0.034297
      4   2   -1.0000       2.446370      -2.104857       2.769960      -0.499982      -0.236511      -0.833115
      5   2   -1.0000      -2.486998      -1.889083      -0.080357       0.619790      -0.402946       0.673420
ITEM: TIMESTEP
800
ITEM: NUMBER OF ATOMS
5
ITEM: BOX BOUNDS ff ff ff
-5.00000000    5.00000000     
-5.00000000    5.00000000     
-5.00000000    5.00000000     
ITEM: ATOMS id type q x y z mux muy muz
      1   1    1.0000       4.512403      -0.106315      -4.171953      -0.114023       0.071259      -0.990919
      2   2   -1.0000       0.878522      -1.775000       3.093892       0.943390      -0.240504      -0.228416
      3   1    1.0000      -0.505349      -2.908140      -3.033130      -0.807559       0.588778       0.034466
      4   2   -1.0000       2.409403      -2.071176       2.785825      -0.567716      -0.189512      -0.801114
      5   2   -1.0000      -2.421875      -1.905278      -0.047978       0.613979      -0.383126       0.690105
ITEM: TIMESTEP
900
ITEM: NUMBER OF ATOMS
5
ITEM: BOX BOUNDS ff ff ff
-5.00000000    5.00000000     
-5.00000000    5.00000000     
-5.00000000    5.00000000     
ITEM: ATOMS id type q x y z mux muy muz
      1   1    1.0000       4.504140      -0.123258      -4.171092      -0.027220      -0.023745      -0.999347
      2   2   -1.0000       0.842307      -1.796709       3.035302       0.911781      -0.222793      -0.344989
      3   1    1.0000      -0.490156      -2.886157      -3.020684      -0.740029       0.664373       0.104711
      4   2   -1.0000       2.372308      -2.037832       2.799677      -0.623374      -0.144422      -0.768471
      5   2   -1.0000      -2.355496      -1.921951      -0.016546       0.602252      -0.358610       0.713226
ITEM: TIMESTEP
1000
ITEM: NUMBER OF ATOMS
5
ITEM: BOX BOUNDS ff ff ff
-5.00000000    5.00000000     
-5.00000000    5.00000000     
-5.00000000    5.00000000     
ITEM: ATOMS id type q x y z mux muy muz
      1   1    1.0000       4.495810      -0.140420      -4.170035       0.073364      -0.132545      -0.988458
      2   2   -1.0000       0.804178      -1.817957       2.978058       0.882693      -0.198902      -0.425783
      3   1    1.0000      -0.475596      -2.863567      -3.006639      -0.674332       0.718065       0.172216
      4   2   -1.0000       2.336372      -2.004835       2.811338      -0.667687      -0.103684      -0.737186
      5   2   -1.0000      -2.287661      -1.939129       0.013936       0.585037      -0.331050       0.740363
ITEM: TIMESTEP
1100
ITEM: NUMBER OF ATOMS
5
ITEM: BOX BOUNDS ff ff ff
-5.00000000    5.00000000     
-5.00000000    5.00000000     
-5.00000000    5.00000000     
ITEM: ATOMS id type q x y z mux muy muz
      1   1    1.0000       4.487428      -0.157777      -4.168787       0.182965      -0.249466      -0.950942
      2   2   -1.0000       0.763043      -1.838801       2.922024       0.863952      -0.174029      -0.472547
      3   1    1.0000      -0.461742      -2.840416      -2.990929      -0.616930       0.751628       0.233351
      4   2   -1.0000       2.302807      -1.972144       2.821010      -0.702785      -0.068851      -0.708063
      5   2   -1.0000      -2.218432      -1.956770       0.043339       0.563641      -0.302618       0.768590
ITEM: TIMESTEP
1200
ITEM: NUMBER OF ATOMS
5
ITEM: BOX BOUNDS ff ff ff
-5.00000000    5.00000000     
-5.00000000    5.00000000     
-5.00000000    5.00000000     
ITEM: ATOMS id type q x y z mux muy muz
      1   1    1.0000       4.479028      -0.175253      -4.167353       0.294307      -0.366326      -0.882717
      2   2   -1.0000       0.718346      -1.859358       2.866977       0.857120      -0.151793      -0.492243
      3   1    1.0000      -0.448702      -2.816817      -2.973531      -0.571153       0.769146       0.286702
      4   2   -1.0000       2.272511      -1.939698       2.829122      -0.731533      -0.039995      -0.680632
      5   2   -1.0000      -2.148080      -1.974783       0.071443       0.539694      -0.275079       0.795652
ITEM: TIMESTEP
1300
ITEM: NUMBER OF ATOMS
5
ITEM: BOX BOUNDS ff ff ff
-5.00000000    5.00000000     
-5.00000000    5.00000000     
-5.00000000    5.00000000     
ITEM: ATOMS id type q x y z mux muy muz
      1   1    1.0000       4.470655      -0.192750      -4.165742       0.400213      -0.475314      -0.783522
      2   2   -1.0000       0.670044      -1.879765       2.812682       0.859561      -0.133852      -0.493193
      3   1    1.0000      -0.436588      -2.792917      -2.954459      -0.537003       0.775114       0.332906
      4   2   -1.0000       2.245977      -1.907428       2.836180      -0.756578      -0.016072      -0.653705
      5   2   -1.0000      -2.076984      -1.993048       0.097996       0.514468      -0.249276       0.820478
ITEM: TIMESTEP
1400
ITEM: NUMBER OF ATOMS
5
ITEM: BOX BOUNDS ff ff ff
-5.00000000    5.00000000     
-5.00000000    5.00000000     
-5.00000000    5.00000000     
ITEM: ATOMS id type q x y z mux muy muz
      1   1    1.0000       4.462349      -0.210173      -4.163955       0.494819      -0.570230      -0.655737
      2   2   -1.0000       0.618467      -1.900163       2.758936       0.867580      -0.120598      -0.482454
      3   1    1.0000      -0.425497      -2.768861      -2.933737      -0.512737       0.773064       0.373460
      4   2   -1.0000       2.223305      -1.875264       2.842655      -0.779746       0.004269      -0.626082
      5   2   -1.0000      -2.005520      -2.011447       0.122758       0.488706      -0.225340       0.842846
ITEM: TIMESTEP
1500
ITEM: NUMBER OF ATOMS
5
ITEM: BOX BOUNDS ff ff ff
-5.00000000    5.00000000     
-5.00000000    5.00000000     
-5.00000000    5.00000000     
ITEM: ATOMS id type q x y z mux muy muz
      1   1    1.0000       4.454140      -0.227446      -4.161994       0.573511      -0.646350      -0.503306
      2   2   -1.0000       0.564164      -1.920671       2.705573       0.878122      -0.111857      -0.465177
      3   1    1.0000      -0.415501      -2.744767      -2.911376      -0.496227       0.765366       0.409846
      4   2   -1.0000       2.204292      -1.843142       2.848925      -0.801988       0.022152      -0.596929
      5   2   -1.0000      -1.933992      -2.029882       0.145530       0.462791      -0.203073       0.862894
ITEM: TIMESTEP
1600
ITEM: NUMBER OF ATOMS
5
ITEM: BOX BOUNDS ff ff ff
-5.00000000    5.00000000     
-5.00000000    5.00000000     
-5.00000000    5.00000000     
ITEM: ATOMS id type q x y z mux muy muz
      1   1    1.0000       4.446044      -0.244520      -4.159855       0.632615      -0.700054      -0.331244
      2   2   -1.0000       0.507754      -1.941378       2.652470       0.889162      -0.107220      -0.444854
      3   1    1.0000      -0.406645      -2.720722      -2.887366      -0.485555       0.753512       0.443235
      4   2   -1.0000       2.188547      -1.811009       2.855257      -0.823603       0.038318      -0.565871
      5   2   -1.0000      -1.862596      -2.048279       0.166153       0.436926      -0.182201       0.880851
ITEM: TIMESTEP
1700
ITEM: NUMBER OF ATOMS
5
ITEM: BOX BOUNDS ff ff ff
-5.00000000    5.00000000     
-5.00000000    5.00000000     
-5.00000000    5.00000000     
ITEM: ATOMS id type q x y z mux muy muz
      1   1    1.0000       4.438065      -0.261369      -4.157531       0.669258      -0.728654      -0.145454
      2   2   -1.0000       0.449838      -1.962335       2.599541       0.899551      -0.106163      -0.423719
      3   1    1.0000      -0.398955      -2.696780      -2.861664      -0.479159       0.738437       0.474466
      4   2   -1.0000       2.175588      -1.778835       2.861808      -0.844490       0.053160      -0.532927
      5   2   -1.0000      -1.791433      -2.066590       0.184505       0.411235      -0.162471       0.896933
ITEM: TIMESTEP
1800
ITEM: NUMBER OF ATOMS
5
ITEM: BOX BOUNDS ff ff ff
-5.00000000    5.00000000     
-5.00000000    5.00000000     
-5.00000000    5.00000000     
ITEM: ATOMS id type q x y z mux muy muz
      1   1    1.0000       4.430200      -0.277988      -4.155010       0.681376      -0.730396       0.047410
      2   2   -1.0000       0.390944      -1.983557       2.546735       0.908750      -0.108093      -0.403099
      3   1    1.0000      -0.392447      -2.672970      -2.834199      -0.475815       0.720736       0.504122
      4   2   -1.0000       2.164928      -1.746609       2.868648      -0.864359       0.066813      -0.498416
      5   2   -1.0000      -1.720522      -2.084784       0.200483       0.385805      -0.143688       0.911322
ITEM: TIMESTEP
1900
ITEM: NUMBER OF ATOMS
5
ITEM: BOX BOUNDS ff ff ff
-5.00000000    5.00000000     
-5.00000000    5.00000000     
-5.00000000    5.00000000     
ITEM: ATOMS id type q x y z mux muy muz
      1   1    1.0000       4.422440      -0.294376      -4.152280       0.667808      -0.704541       0.240115
      2   2   -1.0000       0.331505      -2.005031       2.494037       0.916603      -0.112380      -0.383680
      3   1    1.0000      -0.387127      -2.649312      -2.804875      -0.474575       0.700795       0.532602
      4   2   -1.0000       2.156122      -1.714348       2.875782      -0.882884       0.079252      -0.462855
      5   2   -1.0000      -1.649837      -2.102841       0.213994       0.360705      -0.125710       0.924169
ITEM: TIMESTEP
2000
ITEM: NUMBER OF ATOMS
5
ITEM: BOX BOUNDS ff ff ff
-5.00000000    5.00000000     
-5.00000000    5.00000000     
-5.00000000    5.00000000     
ITEM: ATOMS id type q x y z mux muy muz
      1   1    1.0000       4.414775      -0.310542      -4.149328       0.628398      -0.651456       0.425113
      2   2   -1.0000       0.271864      -2.026714       2.441452       0.923168      -0.118391      -0.365712
      3   1    1.0000      -0.383004      -2.625821      -2.773577      -0.474700       0.678865       0.560180
      4   2   -1.0000       2.148794      -1.682088       2.883168      -0.899790       0.090374      -0.426860
      5   2   -1.0000      -1.579326      -2.120743       0.224943       0.335981      -0.108445       0.935605
ITEM: TIMESTEP
2100
ITEM: NUMBER OF ATOMS
5
ITEM: BOX BOUNDS ff ff ff
-5.00000000    5.00000000     
-5.00000000    5.00000000     
-5.00000000    5.00000000     
ITEM: ATOMS id type q x y z mux muy muz
      1   1    1.0000       4.407199      -0.326491      -4.146141       0.564083      -0.572687       0.594844
      2   2   -1.0000       0.212287      -2.048550       2.389007       0.928618      -0.125526      -0.349159
      3   1    1.0000      -0.380084      -2.602516      -2.740182      -0.475607       0.655115       0.587045
      4   2   -1.0000       2.142641      -1.649882       2.890739      -0.914902       0.100057      -0.391078
      5   2   -1.0000      -1.508939      -2.138470       0.233233       0.311650      -0.091840       0.945748
ITEM: TIMESTEP
2200
ITEM: NUMBER OF ATOMS
5
ITEM: BOX BOUNDS ff ff ff
-5.00000000    5.00000000     
-5.00000000    5.00000000     
-5.00000000    5.00000000     
ITEM: ATOMS id type q x y z mux muy muz
      1   1    1.0000       4.399705      -0.342222      -4.142709       0.476923      -0.470964       0.742117
      2   2   -1.0000       0.152980      -2.070468       2.336742       0.933179      -0.133240      -0.333803
      3   1    1.0000      -0.378373      -2.579424      -2.704554      -0.476826       0.629653       0.613330
      4   2   -1.0000       2.137429      -1.617801       2.898416      -0.928156       0.108199      -0.356118
      5   2   -1.0000      -1.438638      -2.155993       0.238764       0.287695      -0.075878       0.954712
ITEM: TIMESTEP
2300
ITEM: NUMBER OF ATOMS
5
ITEM: BOX BOUNDS ff ff ff
-5.00000000    5.00000000     
-5.00000000    5.00000000     
-5.00000000    5.00000000     
ITEM: ATOMS id type q x y z mux muy muz
      1   1    1.0000       4.392293      -0.357733      -4.139027       0.370075      -0.350144       0.860490
      2   2   -1.0000       0.094107      -2.092393       2.284695       0.937092      -0.141066      -0.319309
      3   1    1.0000      -0.377877      -2.556586      -2.666559      -0.477963       0.602549       0.639129
      4   2   -1.0000       2.132988      -1.585924       2.906114      -0.939585       0.114741      -0.322513
      5   2   -1.0000      -1.368409      -2.173273       0.241435       0.264045      -0.060569       0.962607
ITEM: TIMESTEP
2400
ITEM: NUMBER OF ATOMS
5
ITEM: BOX BOUNDS ff ff ff
-5.00000000    5.00000000     
-5.00000000    5.00000000     
-5.00000000    5.00000000     
ITEM: ATOMS id type q x y z mux muy muz
      1   1    1.0000       4.384966      -0.373010      -4.135092       0.247685      -0.215072       0.944667
      2   2   -1.0000       0.035808      -2.114245       2.232902       0.940600      -0.148620      -0.305261
      3   1    1.0000      -0.378596      -2.534052      -2.626059      -0.478672       0.573849       0.664507
      4   2   -1.0000       2.129197      -1.554339       2.913753      -0.949302       0.119675      -0.290694
      5   2   -1.0000      -1.298271      -2.190262       0.241152       0.240567      -0.045950       0.969544
ITEM: TIMESTEP
2500
ITEM: NUMBER OF ATOMS
5
ITEM: BOX BOUNDS ff ff ff
-5.00000000    5.00000000     
-5.00000000    5.00000000     
-5.00000000    5.00000000     
ITEM: ATOMS id type q x y z mux muy muz
      1   1    1.0000       4.377733      -0.388037      -4.130907       0.114707      -0.071359       0.990833
      2   2   -1.0000      -0.021789      -2.135944       2.181384       0.943928      -0.155606      -0.291183
      3   1    1.0000      -0.380526      -2.511888      -2.582913      -0.478636       0.543588       0.689507
      4   2   -1.0000       2.125969      -1.523141       2.921262      -0.957470       0.123043      -0.260981
      5   2   -1.0000      -1.228283      -2.206899       0.237831       0.217051      -0.032078       0.975633
ITEM: TIMESTEP
2600
ITEM: NUMBER OF ATOMS
5
ITEM: BOX BOUNDS ff ff ff
-5.00000000    5.00000000     
-5.00000000    5.00000000     
-5.00000000    5.00000000     
ITEM: ATOMS id type q x y z mux muy muz
      1   1    1.0000       4.370602      -0.402791      -4.126483      -0.023349       0.074905       0.996917
      2   2   -1.0000      -0.078550      -2.157413       2.130141       0.947283      -0.161812      -0.276535
      3   1    1.0000      -0.383651      -2.490166      -2.536978      -0.477544       0.511796       0.714154
      4   2   -1.0000       2.123247      -1.492426       2.928576      -0.964277       0.124930      -0.233584
      5   2   -1.0000      -1.158545      -2.223113       0.231401       0.193199      -0.019031       0.980975
ITEM: TIMESTEP
2700
ITEM: NUMBER OF ATOMS
5
ITEM: BOX BOUNDS ff ff ff
-5.00000000    5.00000000     
-5.00000000    5.00000000     
-5.00000000    5.00000000     
ITEM: ATOMS id type q x y z mux muy muz
      1   1    1.0000       4.363588      -0.417246      -4.121832      -0.160718       0.217486       0.962741
      2   2   -1.0000      -0.134324      -2.178579       2.079145       0.950845      -0.167102      -0.260711
      3   1    1.0000      -0.387943      -2.468969      -2.488102      -0.475083       0.478518       0.738456
      4   2   -1.0000       2.120992      -1.462290       2.935643      -0.969917       0.125457      -0.208619
      5   2   -1.0000      -1.089210      -2.238824       0.221805       0.168626      -0.006904       0.985656
ITEM: TIMESTEP
2800
ITEM: NUMBER OF ATOMS
5
ITEM: BOX BOUNDS ff ff ff
-5.00000000    5.00000000     
-5.00000000    5.00000000     
-5.00000000    5.00000000     
ITEM: ATOMS id type q x y z mux muy muz
      1   1    1.0000       4.356704      -0.431374      -4.116976      -0.291710       0.350356       0.890031
      2   2   -1.0000      -0.188932      -2.199377       2.028338       0.954751      -0.171411      -0.243040
      3   1    1.0000      -0.393358      -2.448385      -2.436115      -0.470922       0.443811       0.762407
      4   2   -1.0000       2.119175      -1.432828       2.942421      -0.974573       0.124771      -0.186116
      5   2   -1.0000      -1.020487      -2.253943       0.208990       0.142873       0.004191       0.989732
ITEM: TIMESTEP
2900
ITEM: NUMBER OF ATOMS
5
ITEM: BOX BOUNDS ff ff ff
-5.00000000    5.00000000     
-5.00000000    5.00000000     
-5.00000000    5.00000000     
ITEM: ATOMS id type q x y z mux muy muz
      1   1    1.0000       4.349967      -0.445146      -4.111936      -0.411024       0.468030       0.782309
      2   2   -1.0000      -0.242154      -2.219747       1.977641       0.959079      -0.174736      -0.222789
      3   1    1.0000      -0.399831      -2.428506      -2.380820      -0.464708       0.407762       0.785988
      4   2   -1.0000       2.117774      -1.404130       2.948880      -0.978413       0.123031      -0.166043
      5   2   -1.0000      -0.952653      -2.268379       0.192893       0.115446       0.014130       0.993213
ITEM: TIMESTEP
3000
ITEM: NUMBER OF ATOMS
5
ITEM: BOX BOUNDS ff ff ff
-5.00000000    5.00000000     
-5.00000000    5.00000000     
-5.00000000    5.00000000     
ITEM: ATOMS id type q x y z mux muy muz
      1   1    1.0000       4.343389      -0.458532      -4.106741      -0.514044       0.565856       0.644644
      2   2   -1.0000      -0.293720      -2.239635       1.926967       0.963820      -0.177128      -0.199188
      3   1    1.0000      -0.407277      -2.409428      -2.321978      -0.456056       0.370488       0.809168
      4   2   -1.0000       2.116770      -1.376281       2.954998      -0.981582       0.120408      -0.148323
      5   2   -1.0000      -0.886059      -2.282032       0.173411       0.085882       0.022779       0.996045
ITEM: TIMESTEP
3100
ITEM: NUMBER OF ATOMS
5
ITEM: BOX BOUNDS ff ff ff
-5.00000000    5.00000000     
-5.00000000    5.00000000     
-5.00000000    5.00000000     
ITEM: ATOMS id type q x y z mux muy muz
      1   1    1.0000       4.336987      -0.471502      -4.101420      -0.597066       0.640246       0.483320
      2   2   -1.0000      -0.343305      -2.258992       1.876247       0.968848      -0.178682      -0.171484
      3   1    1.0000      -0.415577      -2.391250      -2.259304      -0.444538       0.332139       0.831907
      4   2   -1.0000       2.116141      -1.349363       2.960763      -0.984199       0.117071      -0.132842
      5   2   -1.0000      -0.821143      -2.294801       0.150372       0.053854       0.029997       0.998098
ITEM: TIMESTEP
3200
ITEM: NUMBER OF ATOMS
5
ITEM: BOX BOUNDS ff ff ff
-5.00000000    5.00000000     
-5.00000000    5.00000000     
-5.00000000    5.00000000     
ITEM: ATOMS id type q x y z mux muy muz
      1   1    1.0000       4.330775      -0.484022      -4.096009      -0.657458       0.688815       0.305422
      2   2   -1.0000      -0.390525      -2.277764       1.825464       0.973884      -0.179525      -0.138999
      3   1    1.0000      -0.424576      -2.374083      -2.192456      -0.429677       0.292898       0.854159
      4   2   -1.0000       2.115868      -1.323463       2.966168      -0.986365       0.113188      -0.119466
      5   2   -1.0000      -0.758439      -2.306577       0.123490       0.019297       0.035641       0.999178
ITEM: TIMESTEP
3300
ITEM: NUMBER OF ATOMS
5
ITEM: BOX BOUNDS ff ff ff
-5.00000000    5.00000000     
-5.00000000    5.00000000     
-5.00000000    5.00000000     
ITEM: ATOMS id type q x y z mux muy muz
      1   1    1.0000       4.324774      -0.496047      -4.090546      -0.693737       0.710430       0.118400
      2   2   -1.0000      -0.434942      -2.295885       1.774700       0.978483      -0.179793      -0.101217
      3   1    1.0000      -0.434063      -2.358058      -2.121044      -0.410929       0.252974       0.875866
      4   2   -1.0000       2.115928      -1.298682       2.971205      -0.988161       0.108914      -0.108050
      5   2   -1.0000      -0.698595      -2.317237       0.092342      -0.017446       0.039561       0.999065
ITEM: TIMESTEP
3400
ITEM: NUMBER OF ATOMS
5
ITEM: BOX BOUNDS ff ff ff
-5.00000000    5.00000000     
-5.00000000    5.00000000     
-5.00000000    5.00000000     
ITEM: ATOMS id type q x y z mux muy muz
      1   1    1.0000       4.319012      -0.507516      -4.085081      -0.705546       0.705161      -0.070372
      2   2   -1.0000      -0.476068      -2.313259       1.724176       0.982034      -0.179615      -0.057860
      3   1    1.0000      -0.443753      -2.343338      -2.044647      -0.387659       0.212592       0.896953
      4   2   -1.0000       2.116293      -1.275153       2.975869      -0.989652       0.104397      -0.098439
      5   2   -1.0000      -0.642380      -2.326643       0.056340      -0.055490       0.041602       0.997592
ITEM: TIMESTEP
3500
ITEM: NUMBER OF ATOMS
5
ITEM: BOX BOUNDS ff ff ff
-5.00000000    5.00000000     
-5.00000000    5.00000000     
-5.00000000    5.00000000     
ITEM: ATOMS id type q x y z mux muy muz
      1   1    1.0000       4.313528      -0.518343      -4.079678      -0.693558       0.674149      -0.253969
      2   2   -1.0000      -0.513387      -2.329749       1.674299       0.983792      -0.179088      -0.008956
      3   1    1.0000      -0.453256      -2.330131      -1.962838      -0.359110       0.171990       0.917311
      4   2   -1.0000       2.116930      -1.253053       2.980146      -0.990889       0.099769      -0.090474
      5   2   -1.0000      -0.590712      -2.334632       0.014729      -0.093290       0.041587       0.994770
ITEM: TIMESTEP
3600
ITEM: NUMBER OF ATOMS
5
ITEM: BOX BOUNDS ff ff ff
-5.00000000    5.00000000     
-5.00000000    5.00000000     
-5.00000000    5.00000000     
ITEM: ATOMS id type q x y z mux muy muz
      1   1    1.0000       4.308379      -0.528407      -4.074422      -0.659307       0.619411      -0.426198
      2   2   -1.0000      -0.546365      -2.345159       1.625703       0.982948      -0.178258       0.045134
      3   1    1.0000      -0.462038      -2.318703      -1.875214      -0.324358       0.131412       0.936762
      4   2   -1.0000       2.117798      -1.232627       2.984011      -0.991913       0.095153      -0.083990
      5   2   -1.0000      -0.544671      -2.341013      -0.033420      -0.128566       0.039312       0.990922
ITEM: TIMESTEP
3700
ITEM: NUMBER OF ATOMS
5
ITEM: BOX BOUNDS ff ff ff
-5.00000000    5.00000000     
-5.00000000    5.00000000     
-5.00000000    5.00000000     
ITEM: ATOMS id type q x y z mux muy muz
      1   1    1.0000       4.303644      -0.537549      -4.069421      -0.605002       0.543629      -0.581756
      2   2   -1.0000      -0.574480      -2.359225       1.579282       0.978710      -0.177106       0.103732
      3   1    1.0000      -0.469381      -2.309386      -1.781394      -0.282263       0.091122       0.955000
      4   2   -1.0000       2.118843      -1.214189       2.987428      -0.992758       0.090660      -0.078820
      5   2   -1.0000      -0.505523      -2.345560      -0.089238      -0.158237       0.034521       0.986797
ITEM: TIMESTEP
3800
ITEM: NUMBER OF ATOMS
5
ITEM: BOX BOUNDS ff ff ff
-5.00000000    5.00000000     
-5.00000000    5.00000000     
-5.00000000    5.00000000     
ITEM: ATOMS id type q x y z mux muy muz
      1   1    1.0000       4.299425      -0.545565      -4.064818      -0.533363       0.449977      -0.716271
      2   2   -1.0000      -0.597257      -2.371614       1.536240       0.970392      -0.175551       0.165894
      3   1    1.0000      -0.474336      -2.302578      -1.680933      -0.231425       0.051454       0.971491
      4   2   -1.0000       2.119994      -1.198134       2.990347      -0.993450       0.086398      -0.074783
      5   2   -1.0000      -0.474723      -2.348017      -0.154178      -0.178339       0.026902       0.983601
ITEM: TIMESTEP
3900
ITEM: NUMBER OF ATOMS
5
ITEM: BOX BOUNDS ff ff ff
-5.00000000    5.00000000     
-5.00000000    5.00000000     
-5.00000000    5.00000000     
ITEM: ATOMS id type q x y z mux muy muz