ITEM: TIMESTEP
0
ITEM: NUMBER OF ATOMS
5
ITEM: BOX BOUNDS ff ff ff
-5.00000000    5.00000000     
-5.00000000    5.00000000     
-5.00000000    5.00000000     
ITEM: ATOMS id type q x y z mux muy muz
      1   1    1.0000      -0.579990      -3.077589      -0.500745       0.169449      -0.804202       0.569690
      2   2   -1.0000      -3.428206       0.589658       1.636819       0.400098       0.631598       0.664083
      3   1    1.0000      -4.375207       3.711138      -3.148253       0.954607      -0.291037       0.063420
      4   2   -1.0000      -2.746473       1.613941      -0.311919       0.235374      -0.663956       0.709761
      5   2   -1.0000      -0.006297      -3.718393       3.057104       0.891751      -0.446489       0.073671
ITEM: TIMESTEP
100
ITEM: NUMBER OF ATOMS
5
ITEM: BOX BOUNDS ff ff ff
-5.00000000    5.00000000     
-5.00000000    5.00000000     
-5.00000000    5.00000000     
ITEM: ATOMS id type q x y z mux muy muz
      1   1    1.0000      -0.606778      -3.068245      -0.534182       0.162249      -0.809082       0.564856
      2   2   -1.0000      -3.411454       0.548785       1.605462       0.396788       0.636322       0.661554
      3   1    1.0000      -4.329956       3.692353      -3.113754       0.952734      -0.295946       0.068658
      4   2   -1.0000      -2.756583       1.658776      -0.255733       0.215272      -0.672555       0.708046
      5   2   -1.0000      -0.031401      -3.712913       3.031213       0.948654      -0.308681      -0.069074
ITEM: TIMESTEP
200
ITEM: NUMBER OF ATOMS
5
ITEM: BOX BOUNDS ff ff ff
-5.00000000    5.00000000     
-5.00000000    5.00000000     
-5.00000000    5.00000000     
ITEM: ATOMS id type q x y z mux muy muz
      1   1    1.0000      -0.633880      -3.058508      -0.566307       0.148310      -0.809150       0.568578
      2   2   -1.0000      -3.394400       0.507861       1.574155       0.389948       0.643696       0.658480
      3   1    1.0000      -4.284484       3.672711      -3.077894       0.947735      -0.307293       0.085844
      4   2   -1.0000      -2.767405       1.704542      -0.201422       0.174849      -0.685155       0.707100
      5   2   -1.0000      -0.056003      -3.707850       3.004474       0.967159      -0.155476      -0.201074
ITEM: TIMESTEP
300
ITEM: NUMBER OF ATOMS
5
ITEM: BOX BOUNDS ff ff ff
-5.00000000    5.00000000     
-5.00000000    5.00000000     
-5.00000000    5.00000000     
ITEM: ATOMS id type q x y z mux muy muz
      1   1    1.0000      -0.661310      -3.048416      -0.597197       0.126117      -0.803328       0.582029
      2   2   -1.0000      -3.377033       0.466987       1.542879       0.378599       0.653486       0.655454
      3   1    1.0000      -4.238807       3.652225      -3.040638       0.938132      -0.325802       0.117311
      4   2   -1.0000      -2.778930       1.751117      -0.149030       0.110818      -0.701369       0.704131
      5   2   -1.0000      -0.080092      -3.703158       2.976992       0.948806       0.004518      -0.315827
ITEM: TIMESTEP
400
ITEM: NUMBER OF ATOMS
5
ITEM: BOX BOUNDS ff ff ff
-5.00000000    5.00000000     
-5.00000000    5.00000000     
-5.00000000    5.00000000     
ITEM: ATOMS id type q x y z mux muy muz
      1   1    1.0000      -0.689074      -3.038007      -0.626923       0.094304      -0.789994       0.605818
      2   2   -1.0000      -3.359363       0.426275       1.511607       0.362048       0.664988       0.653232
      3   1    1.0000      -4.192922       3.630907      -3.001938       0.921575      -0.351492       0.164782
      4   2   -1.0000      -2.791139       1.798364      -0.098596       0.021405      -0.719007       0.694673
      5   2   -1.0000      -0.103675      -3.698784       2.948856       0.898212       0.162533      -0.408409
ITEM: TIMESTEP
500
ITEM: NUMBER OF ATOMS
5
ITEM: BOX BOUNDS ff ff ff
-5.00000000    5.00000000     
-5.00000000    5.00000000     
-5.00000000    5.00000000     
ITEM: ATOMS id type q x y z mux muy muz
      1   1    1.0000      -0.717169      -3.027313      -0.655543       0.052036      -0.767034       0.639492
      2   2   -1.0000      -3.341430       0.385828       1.480313       0.340214       0.677021       0.652608
      3   1    1.0000      -4.146805       3.608767      -2.961741       0.894942      -0.383209       0.228536
      4   2   -1.0000      -2.803996       1.846143      -0.050160      -0.092023      -0.733848       0.673052
      5   2   -1.0000      -0.126773      -3.694671       2.920137       0.822667       0.310692      -0.476119
ITEM: TIMESTEP
600
ITEM: NUMBER OF ATOMS
5
ITEM: BOX BOUNDS ff ff ff
-5.00000000    5.00000000     
-5.00000000    5.00000000     
-5.00000000    5.00000000     
ITEM: ATOMS id type q x y z mux muy muz
      1   1    1.0000      -0.745585      -3.016362      -0.683100      -0.000653      -0.732089       0.681209
      2   2   -1.0000      -3.323298       0.345731       1.448974       0.313821       0.688143       0.654198
      3   1    1.0000      -4.100417       3.585821      -2.919997       0.854852      -0.418461       0.306787
      4   2   -1.0000      -2.817452       1.894326      -0.003762      -0.223853      -0.740400       0.633796
      5   2   -1.0000      -0.149420      -3.690760       2.890891       0.730829       0.443411      -0.518917
ITEM: TIMESTEP
700
ITEM: NUMBER OF ATOMS
5
ITEM: BOX BOUNDS ff ff ff
-5.00000000    5.00000000     
-5.00000000    5.00000000     
-5.00000000    5.00000000     
ITEM: ATOMS id type q x y z mux muy muz
      1   1    1.0000      -0.774303      -3.005172      -0.709620      -0.062796      -0.682866       0.727839
      2   2   -1.0000      -3.305064       0.306020       1.417572       0.284312       0.697058       0.658238
      3   1    1.0000      -4.053711       3.562095      -2.876668       0.798447      -0.453738       0.395734
      4   2   -1.0000      -2.831441       1.942810       0.040558      -0.364723      -0.733560       0.573469
      5   2   -1.0000      -0.171654      -3.686997       2.861164       0.630809       0.558170      -0.539004
ITEM: TIMESTEP
800
ITEM: NUMBER OF ATOMS
5
ITEM: BOX BOUNDS ff ff ff
-5.00000000    5.00000000     
-5.00000000    5.00000000     
-5.00000000    5.00000000     
ITEM: ATOMS id type q x y z mux muy muz
      1   1    1.0000      -0.803290      -2.993754      -0.735106      -0.132686      -0.617373       0.775400
      2   2   -1.0000      -3.286837       0.266685       1.386090       0.253500       0.702981       0.664497
      3   1    1.0000      -4.006643       3.537633      -2.831751       0.724038      -0.485187       0.490268
      4   2   -1.0000      -2.845891       1.991524       0.082769      -0.503648      -0.710247       0.491821
      5   2   -1.0000      -0.193511      -3.683333       2.831003       0.528712       0.655120      -0.539704
ITEM: TIMESTEP
900
ITEM: NUMBER OF ATOMS
5
ITEM: BOX BOUNDS ff ff ff
-5.00000000    5.00000000     
-5.00000000    5.00000000     
-5.00000000    5.00000000     
ITEM: ATOMS id type q x y z mux muy muz
      1   1    1.0000      -0.832507      -2.982112      -0.759540      -0.208090      -0.534030       0.819458
      2   2   -1.0000      -3.268730       0.227660       1.354502       0.223195       0.705795       0.672338
      3   1    1.0000      -3.959186       3.512503      -2.785283       0.631393      -0.509229       0.584832
      4   2   -1.0000      -2.860730       2.040427       0.122870      -0.630525      -0.670103       0.391662
      5   2   -1.0000      -0.215019      -3.679723       2.800458       0.428309       0.735936      -0.524357
ITEM: TIMESTEP
1000
ITEM: NUMBER OF ATOMS
5
ITEM: BOX BOUNDS ff ff ff
-5.00000000    5.00000000     
-5.00000000    5.00000000     
-5.00000000    5.00000000     
ITEM: ATOMS id type q x y z mux muy muz
      1   1    1.0000      -0.861901      -2.970245      -0.782888      -0.286298      -0.431827       0.855312
      2   2   -1.0000      -3.250841       0.188847       1.322766       0.194944       0.706003       0.680850
      3   1    1.0000      -3.911333       3.486793      -2.737355       0.521737      -0.522938       0.674037
      4   2   -1.0000      -2.875895       2.089491       0.160897      -0.737814      -0.615169       0.277845
      5   2   -1.0000      -0.236202      -3.676131       2.769585       0.331545       0.802703      -0.495728
ITEM: TIMESTEP
1100
ITEM: NUMBER OF ATOMS
5
ITEM: BOX BOUNDS ff ff ff
-5.00000000    5.00000000     
-5.00000000    5.00000000     
-5.00000000    5.00000000     
ITEM: ATOMS id type q x y z mux muy muz
      1   1    1.0000      -0.891419      -2.958147      -0.805101      -0.364028      -0.310611       0.878069
      2   2   -1.0000      -3.233237       0.150129       1.290822       0.169910       0.704555       0.689009
      3   1    1.0000      -3.863099       3.460608      -2.688101       0.397629      -0.524225       0.753047
      4   2   -1.0000      -2.891340       2.138689       0.196935      -0.821119      -0.549024       0.156003
      5   2   -1.0000      -0.257078      -3.672524       2.738451       0.239264       0.857263      -0.455908
ITEM: TIMESTEP
1200
ITEM: NUMBER OF ATOMS
5
ITEM: BOX BOUNDS ff ff ff
-5.00000000    5.00000000     
-5.00000000    5.00000000     
-5.00000000    5.00000000     
ITEM: ATOMS id type q x y z mux muy muz
      1   1    1.0000      -0.921009      -2.945803      -0.826128      -0.437333      -0.171494       0.882796
      2   2   -1.0000      -3.215945       0.111388       1.258589       0.148833       0.702639       0.695807
      3   1    1.0000      -3.814521       3.434061      -2.637694       0.262758      -0.511937       0.817850
      4   2   -1.0000      -2.907037       2.187987       0.231117      -0.878960      -0.475853       0.031512
      5   2   -1.0000      -0.277661      -3.668878       2.707122       0.151778       0.900966      -0.406478
ITEM: TIMESTEP
1300
ITEM: NUMBER OF ATOMS
5
ITEM: BOX BOUNDS ff ff ff
-5.00000000    5.00000000     
-5.00000000    5.00000000     
-5.00000000    5.00000000     
ITEM: ATOMS id type q x y z mux muy muz
      1   1    1.0000      -0.950629      -2.933196      -0.845917      -0.501651      -0.017293       0.864898
      2   2   -1.0000      -3.198958       0.072526       1.225971       0.132031       0.701469       0.700364
      3   1    1.0000      -3.765644       3.407261      -2.586326       0.121618      -0.485897       0.865513
      4   2   -1.0000      -2.922975       2.237334       0.263614      -0.912105      -0.399685      -0.091189
      5   2   -1.0000      -0.297968      -3.665170       2.675665       0.069199       0.934668      -0.348721
ITEM: TIMESTEP
1400
ITEM: NUMBER OF ATOMS
5
ITEM: BOX BOUNDS ff ff ff
-5.00000000    5.00000000     
-5.00000000    5.00000000     
-5.00000000    5.00000000     
ITEM: ATOMS id type q x y z mux muy muz
      1   1    1.0000      -0.980252      -2.920303      -0.864420      -0.552064       0.147203       0.820705
      2   2   -1.0000      -3.182231       0.033465       1.192864       0.119435       0.702104       0.701987
      3   1    1.0000      -3.716521       3.380311      -2.534194      -0.020920      -0.446852       0.894363
      4   2   -1.0000      -2.939152       2.286668       0.294617      -0.922738      -0.323889      -0.208926
      5   2   -1.0000      -0.318016      -3.661386       2.644140      -0.008396       0.958842      -0.283815
ITEM: TIMESTEP
1500
ITEM: NUMBER OF ATOMS
5
ITEM: BOX BOUNDS ff ff ff
-5.00000000    5.00000000     
-5.00000000    5.00000000     
-5.00000000    5.00000000     
ITEM: ATOMS id type q x y z mux muy muz
      1   1    1.0000      -1.009872      -2.907099      -0.881597      -0.583805       0.315265       0.748184
      2   2   -1.0000      -3.165696      -0.005844       1.159162       0.110642       0.705307       0.700215
      3   1    1.0000      -3.667210       3.353294      -2.481491      -0.160090      -0.396335       0.904041
      4   2   -1.0000      -2.955570       2.335918       0.324329      -0.913649      -0.250921      -0.319818
      5   2   -1.0000      -0.337824      -3.657515       2.612603      -0.080920       0.973705      -0.212955
ITEM: TIMESTEP
1600
ITEM: NUMBER OF ATOMS
5
ITEM: BOX BOUNDS ff ff ff
-5.00000000    5.00000000     
-5.00000000    5.00000000     
-5.00000000    5.00000000     
ITEM: ATOMS id type q x y z mux muy muz
      1   1    1.0000      -1.039499      -2.893557      -0.897413      -0.592897       0.478671       0.647570
      2   2   -1.0000      -3.149268      -0.045428       1.124764       0.104993       0.711466       0.694833
      3   1    1.0000      -3.617766       3.326280      -2.428391      -0.291666      -0.336436       0.895400
      4   2   -1.0000      -2.972231       2.385013       0.352945      -0.887551      -0.182289      -0.423113
      5   2   -1.0000      -0.357408      -3.653553       2.581100      -0.148272       0.979352      -0.137426
ITEM: TIMESTEP
1700
ITEM: NUMBER OF ATOMS
5
ITEM: BOX BOUNDS ff ff ff
-5.00000000    5.00000000     
-5.00000000    5.00000000     
-5.00000000    5.00000000     
ITEM: ATOMS id type q x y z mux muy muz
      1   1    1.0000      -1.069161      -2.879658      -0.911839      -0.576813       0.628541       0.521750
      2   2   -1.0000      -3.132856      -0.085287       1.089579       0.101653       0.720579       0.685881
      3   1    1.0000      -3.568244       3.299316      -2.375051      -0.412257      -0.269563       0.870276
      4   2   -1.0000      -2.989129       2.433886       0.380646      -0.846562      -0.118653      -0.518897
      5   2   -1.0000      -0.376783      -3.649501       2.549673      -0.210351       0.975866      -0.058634
ITEM: TIMESTEP
1800
ITEM: NUMBER OF ATOMS
5
ITEM: BOX BOUNDS ff ff ff
-5.00000000    5.00000000     
-5.00000000    5.00000000     
-5.00000000    5.00000000     
ITEM: ATOMS id type q x y z mux muy muz
      1   1    1.0000      -1.098901      -2.865388      -0.924853      -0.535011       0.756428       0.376271
      2   2   -1.0000      -3.116371      -0.125403       1.053525       0.099700       0.732280       0.673666
      3   1    1.0000      -3.518701       3.272432      -2.321606      -0.519435      -0.198225       0.831200
      4   2   -1.0000      -3.006245       2.482483       0.407589      -0.791854      -0.060020      -0.607754
      5   2   -1.0000      -0.395954      -3.645369       2.518351      -0.267067       0.963430       0.021872
ITEM: TIMESTEP
1900
ITEM: NUMBER OF ATOMS
5
ITEM: BOX BOUNDS ff ff ff
-5.00000000    5.00000000     
-5.00000000    5.00000000     
-5.00000000    5.00000000     
ITEM: ATOMS id type q x y z mux muy muz
      1   1    1.0000      -1.128774      -2.850744      -0.936433      -0.469233       0.855497       0.218964
      2   2   -1.0000      -3.099732      -0.165744       1.016536       0.098199       0.745912       0.658766
      3   1    1.0000      -3.469195       3.245644      -2.268166      -0.611711      -0.124911       0.781157
      4   2   -1.0000      -3.023553       2.530767       0.433909      -0.723419      -0.005961      -0.690384
      5   2   -1.0000      -0.414919      -3.641168       2.487160      -0.318339       0.942431       0.102396
ITEM: TIMESTEP
2000
ITEM: NUMBER OF ATOMS
5
ITEM: BOX BOUNDS ff ff ff
-5.00000000    5.00000000     
-5.00000000    5.00000000     
-5.00000000    5.00000000     
ITEM: ATOMS id type q x y z mux muy muz
      1   1    1.0000      -1.158843      -2.835734      -0.946563      -0.383555       0.921617       0.059228
      2   2   -1.0000      -3.082872      -0.206265       0.978561       0.096274       0.760598       0.642046
      3   1    1.0000      -3.419785       3.218952      -2.214823      -0.688434      -0.052055       0.723429
      4   2   -1.0000      -3.041010       2.578720       0.459719      -0.639948       0.044148      -0.767149
      5   2   -1.0000      -0.433663      -3.636918       2.456112      -0.364092       0.913590       0.181079
ITEM: TIMESTEP
2100
ITEM: NUMBER OF ATOMS
5
ITEM: BOX BOUNDS ff ff ff
-5.00000000    5.00000000     
-5.00000000    5.00000000     
-5.00000000    5.00000000     
ITEM: ATOMS id type q x y z mux muy muz
      1   1    1.0000      -1.189172      -2.820382      -0.955225      -0.284174       0.954259      -0.092930
      2   2   -1.0000      -3.065735      -0.246912       0.939558       0.093166       0.775327       0.624650
      3   1    1.0000      -3.370541       3.192345      -2.161647      -0.749687       0.017924       0.661550
      4   2   -1.0000      -3.058561       2.626344       0.485107      -0.538864       0.090861      -0.837478
      5   2   -1.0000      -0.452163      -3.632640       2.425212      -0.404256       0.878120       0.255896
ITEM: TIMESTEP
2200
ITEM: NUMBER OF ATOMS
5
ITEM: BOX BOUNDS ff ff ff
-5.00000000    5.00000000     
-5.00000000    5.00000000     
-5.00000000    5.00000000     
ITEM: ATOMS id type q x y z mux muy muz
      1   1    1.0000      -1.219829      -2.804718      -0.962402      -0.178905       0.957067      -0.228070
      2   2   -1.0000      -3.048283      -0.287631       0.899503       0.088297       0.789034       0.607971
      3   1    1.0000      -3.321538       3.165800      -2.108685      -0.796247       0.082574       0.599311
      4   2   -1.0000      -3.076134       2.673660       0.510138      -0.416698       0.134337      -0.899064
      5   2   -1.0000      -0.470389      -3.628357       2.394453      -0.438783       0.837878       0.324701
ITEM: TIMESTEP
2300
ITEM: NUMBER OF ATOMS
5
ITEM: BOX BOUNDS ff ff ff
-5.00000000    5.00000000     
-5.00000000    5.00000000     
-5.00000000    5.00000000     
ITEM: ATOMS id type q x y z mux muy muz
      1   1    1.0000      -1.250875      -2.788785      -0.968073      -0.076293       0.937795      -0.338703
      2   2   -1.0000      -3.030484      -0.328363       0.858376       0.081343       0.800695       0.593524
      3   1    1.0000      -3.272866       3.139288      -2.055963      -0.829598       0.139474       0.540660
      4   2   -1.0000      -3.093643       2.720708       0.534852      -0.270178       0.173951      -0.946966
      5   2   -1.0000      -0.488304      -3.624092       2.363814      -0.467718       0.795427       0.385403
ITEM: TIMESTEP
2400
ITEM: NUMBER OF ATOMS
5
ITEM: BOX BOUNDS ff ff ff
-5.00000000    5.00000000     
-5.00000000    5.00000000     
-5.00000000    5.00000000     
ITEM: ATOMS id type q x y z mux muy muz
      1   1    1.0000      -1.282372      -2.772627      -0.972214       0.015826       0.907060      -0.420704
      2   2   -1.0000      -3.012312      -0.369059       0.816170       0.072278       0.809467       0.582699
      3   1    1.0000      -3.224631       3.112769      -2.003475      -0.851936       0.186539       0.489294
      4   2   -1.0000      -3.110988       2.767538       0.559253      -0.098281       0.207982      -0.973183
      5   2   -1.0000      -0.505869      -3.619865       2.333272      -0.491304       0.753810       0.436338
ITEM: TIMESTEP
2500
ITEM: NUMBER OF ATOMS
5
ITEM: BOX BOUNDS ff ff ff
-5.00000000    5.00000000     
-5.00000000    5.00000000     
-5.00000000    5.00000000     
ITEM: ATOMS id type q x y z mux muy muz
      1   1    1.0000      -1.314375      -2.756287      -0.974793       0.092072       0.875633      -0.474121
      2   2   -1.0000      -2.993742      -0.409673       0.772879       0.061351       0.814856       0.576407
      3   1    1.0000      -3.176956       3.086196      -1.951178      -0.865954       0.222546       0.447881
      4   2   -1.0000      -3.128050       2.814211       0.583301       0.095418       0.233707      -0.967614
      5   2   -1.0000      -0.523049      -3.615692       2.302798      -0.510092       0.715882       0.476780
ITEM: TIMESTEP
2600
ITEM: NUMBER OF ATOMS
5
ITEM: BOX BOUNDS ff ff ff
-5.00000000    5.00000000     
-5.00000000    5.00000000     
-5.00000000    5.00000000     
ITEM: ATOMS id type q x y z mux muy muz
      1   1    1.0000      -1.346938      -2.739801      -0.975772       0.150589       0.851346      -0.502526
      2   2   -1.0000      -2.974740      -0.450169       0.728501       0.048936       0.816796       0.574848
      3   1    1.0000      -3.129987       3.059521      -1.898985      -0.874358       0.247512       0.417417
      4   2   -1.0000      -3.144699       2.860785       0.606892       0.301801       0.248069      -0.920531
      5   2   -1.0000      -0.539809      -3.611582       2.272369      -0.524932       0.683484       0.507243
ITEM: TIMESTEP
2700
ITEM: NUMBER OF ATOMS
5
ITEM: BOX BOUNDS ff ff ff
-5.00000000    5.00000000     
-5.00000000    5.00000000     
-5.00000000    5.00000000     
ITEM: ATOMS id type q x y z mux muy muz
      1   1    1.0000      -1.380112      -2.723196      -0.975102       0.192553       0.837705      -0.511051
      2   2   -1.0000      -2.955262      -0.490516       0.683038       0.035340       0.815554       0.577601
      3   1    1.0000      -3.083889       3.032694      -1.846743      -0.879317       0.262526       0.397344
      4   2   -1.0000      -3.160790       2.907311       0.629836       0.507431       0.248537      -0.825072
      5   2   -1.0000      -0.556120      -3.607538       2.241977      -0.536803       0.657094       0.529217
ITEM: TIMESTEP
2800
ITEM: NUMBER OF ATOMS
5
ITEM: BOX BOUNDS ff ff ff
-5.00000000    5.00000000     
-5.00000000    5.00000000     
-5.00000000    5.00000000     
ITEM: ATOMS id type q x y z mux muy muz
      1   1    1.0000      -1.413952      -2.706490      -0.972725       0.220601       0.834777      -0.504462
      2   2   -1.0000      -2.935249      -0.530691       0.636493       0.020709       0.811533       0.583940
      3   1    1.0000      -3.038849       3.005682      -1.794233      -0.882199       0.269166       0.386361
      4   2   -1.0000      -3.176169       2.953813       0.651844       0.696437       0.233625      -0.678524
      5   2   -1.0000      -0.571954      -3.603559       2.211627      -0.546602       0.636154       0.544549
ITEM: TIMESTEP
2900
ITEM: NUMBER OF ATOMS
5
ITEM: BOX BOUNDS ff ff ff
-5.00000000    5.00000000     
-5.00000000    5.00000000     
-5.00000000    5.00000000     
ITEM: ATOMS id type q x y z mux muy muz
      1   1    1.0000      -1.448509      -2.689684      -0.968574       0.237471       0.840910      -0.486290
      2   2   -1.0000      -2.914631      -0.570676       0.588875       0.005048       0.805113       0.593099
      3   1    1.0000      -2.995069       2.978482      -1.741151      -0.883612       0.269030       0.383214
      4   2   -1.0000      -3.190678       3.000271       0.672508       0.851751       0.203112      -0.482977
      5   2   -1.0000      -0.587285      -3.599639       2.181348      -0.555032       0.619650       0.554954
ITEM: TIMESTEP
3000
ITEM: NUMBER OF ATOMS
5
ITEM: BOX BOUNDS ff ff ff
-5.00000000    5.00000000     
-5.00000000    5.00000000     
-5.00000000    5.00000000     
ITEM: ATOMS id type q x y z mux muy muz
      1   1    1.0000      -1.483837      -2.672762      -0.962572       0.245354       0.853992      -0.458803
      2   2   -1.0000      -2.893327      -0.610456       0.540200      -0.011716       0.796592       0.604404
      3   1    1.0000      -2.952764       2.951143      -1.687114      -0.883576       0.263564       0.387076
      4   2   -1.0000      -3.204158       3.046598       0.691302       0.956228       0.158258      -0.246137
      5   2   -1.0000      -0.602087      -3.595768       2.151189      -0.562588       0.606520       0.561808
ITEM: TIMESTEP
3100
ITEM: NUMBER OF ATOMS
5
ITEM: BOX BOUNDS ff ff ff
-5.00000000    5.00000000     
-5.00000000    5.00000000     
-5.00000000    5.00000000     
ITEM: ATOMS id type q x y z mux muy muz
      1   1    1.0000      -1.519989      -2.655690      -0.954633       0.245767       0.872023      -0.423290
      2   2   -1.0000      -2.871240      -0.650025       0.490496      -0.029694       0.786173       0.617293
      3   1    1.0000      -2.912155       2.923795      -1.631666      -0.881674       0.254103       0.397596
      4   2   -1.0000      -3.216456       3.092613       0.707582       0.994616       0.102070       0.017932
      5   2   -1.0000      -0.616332      -3.591939       2.121227      -0.569606       0.595836       0.566153
ITEM: TIMESTEP
3200
ITEM: NUMBER OF ATOMS
5
ITEM: BOX BOUNDS ff ff ff
-5.00000000    5.00000000     
-5.00000000    5.00000000     
-5.00000000    5.00000000     
ITEM: ATOMS id type q x y z mux muy muz
      1   1    1.0000      -1.557015      -2.638403      -0.944664       0.239612       0.893272      -0.380330
      2   2   -1.0000      -2.848267      -0.689385       0.439804      -0.049022       0.773982       0.631307
      3   1    1.0000      -2.873459       2.896678      -1.574313      -0.877165       0.241963       0.414771
      4   2   -1.0000      -3.227440       3.138007       0.720616       0.956489       0.039397       0.289097
      5   2   -1.0000      -0.629990      -3.588142       2.091563      -0.576302       0.586855       0.568751
ITEM: TIMESTEP
3300
ITEM: NUMBER OF ATOMS
5
ITEM: BOX BOUNDS ff ff ff
-5.00000000    5.00000000     
-5.00000000    5.00000000     
-5.00000000    5.00000000     
ITEM: ATOMS id type q x y z mux muy muz
      1   1    1.0000      -1.594961      -2.620805      -0.932567       0.227284       0.916214      -0.329991
      2   2   -1.0000      -2.824293      -0.728557       0.388190      -0.069876       0.760079       0.646063
      3   1    1.0000      -2.836886       2.870162      -1.514571      -0.869062       0.228515       0.438762
      4   2   -1.0000      -3.237005       3.182329       0.729620       0.839288      -0.023370       0.543184
      5   2   -1.0000      -0.643027      -3.584373       2.062333      -0.582813       0.579001       0.570164
ITEM: TIMESTEP
3400
ITEM: NUMBER OF ATOMS
5
ITEM: BOX BOUNDS ff ff ff
-5.00000000    5.00000000     
-5.00000000    5.00000000     
-5.00000000    5.00000000     
ITEM: ATOMS id type q x y z mux muy muz
      1   1    1.0000      -1.633863      -2.602749      -0.918242       0.208759       0.939388      -0.271975
      2   2   -1.0000      -2.799191      -0.767586       0.335753      -0.092491       0.744481       0.661206
      3   1    1.0000      -2.802628       2.844755      -1.452031      -0.856186       0.215205       0.469715
      4   2   -1.0000      -3.245086       3.224965       0.733821       0.650182      -0.079069       0.755653
      5   2   -1.0000      -0.655405      -3.580630       2.033705      -0.589220       0.571836       0.570809
ITEM: TIMESTEP
3500
ITEM: NUMBER OF ATOMS
5
ITEM: BOX BOUNDS ff ff ff
-5.00000000    5.00000000     
-5.00000000    5.00000000     
-5.00000000    5.00000000     
ITEM: ATOMS id type q x y z mux muy muz
      1   1    1.0000      -1.673741      -2.584027      -0.901597       0.183672       0.961211      -0.205761
      2   2   -1.0000      -2.772829      -0.806557       0.282630      -0.117179       0.727198       0.676352
      3   1    1.0000      -2.770853       2.821100      -1.386438      -0.837212       0.203528       0.507595
      4   2   -1.0000      -3.251672       3.265157       0.732523       0.405798      -0.120806       0.905944
      5   2   -1.0000      -0.667077      -3.576918       2.005888      -0.595562       0.565027       0.571009
ITEM: TIMESTEP
3600
ITEM: NUMBER OF ATOMS
5
ITEM: BOX BOUNDS ff ff ff
-5.00000000    5.00000000     
-5.00000000    5.00000000     
-5.00000000    5.00000000     
ITEM: ATOMS id type q x y z mux muy muz
      1   1    1.0000      -1.714602      -2.564337      -0.882560       0.151404       0.979780      -0.130795
      2   2   -1.0000      -2.745067      -0.845625       0.229016      -0.144339       0.708301       0.690996
      3   1    1.0000      -2.741697       2.799939      -1.317752      -0.810695       0.194957       0.552056
      4   2   -1.0000      -3.256811       3.302025       0.725173       0.129739      -0.142970       0.981187
      5   2   -1.0000      -0.677995      -3.573248       1.979128      -0.601842       0.558317       0.571024
ITEM: TIMESTEP
3700
ITEM: NUMBER OF ATOMS
5
ITEM: BOX BOUNDS ff ff ff
-5.00000000    5.00000000     
-5.00000000    5.00000000     
-5.00000000    5.00000000     
ITEM: ATOMS id type q x y z mux muy muz
      1   1    1.0000      -1.756429      -2.543257      -0.861091       0.111211       0.992696      -0.046772
      2   2   -1.0000      -2.715764      -0.885052       0.175165      -0.174426       0.688036       0.704402
      3   1    1.0000      -2.715265       2.782065      -1.246203      -0.775098       0.190840       0.602331
      4   2   -1.0000      -3.260609       3.334636       0.711425      -0.151356      -0.141890       0.978243
      5   2   -1.0000      -0.688106      -3.569638       1.953712      -0.608031       0.551508       0.571084
ITEM: TIMESTEP
3800
ITEM: NUMBER OF ATOMS
5
ITEM: BOX BOUNDS ff ff ff
-5.00000000    5.00000000     
-5.00000000    5.00000000     
-5.00000000    5.00000000     
ITEM: ATOMS id type q x y z mux muy muz
      1   1    1.0000      -1.799174      -2.520187      -0.837212       0.062445       0.996990       0.045948
      2   2   -1.0000      -2.684786      -0.925256       0.121406      -0.207884       0.667002       0.715466
      3   1    1.0000      -2.691627       2.768243      -1.172310      -0.728839       0.192269       0.657135
      4   2   -1.0000      -3.263230       3.362073       0.691171      -0.412092      -0.116006       0.903727
      5   2   -1.0000      -0.697355      -3.566118       1.929950      -0.614066       0.544446       0.571403
ITEM: TIMESTEP
3900
ITEM: NUMBER OF ATOMS
5
ITEM: BOX BOUNDS ff ff ff
-5.00000000    5.00000000     
-5.00000000    5.00000000     
-5.00000000    5.00000000     
ITEM: ATOMS id type q x y z mux muy muz