ITEM: TIMESTEP
0
ITEM: NUMBER OF ATOMS
5
ITEM: BOX BOUNDS ff ff ff
-5.00000000    5.00000000     
-5.00000000    5.00000000     
-5.00000000    5.00000000     
ITEM: ATOMS id type q x y z mux muy muz
      1   1    1.0000      -3.111542       2.011286      -2.093874       0.260300      -0.744865       0.614345
      2   2   -1.0000      -2.025309      -2.036659       2.256059       0.978905      -0.159247       0.128007
      3   1    1.0000      -2.701091      -4.990799       2.152374      -0.373785      -0.357632       0.855794
      4   2   -1.0000      -3.288310      -3.954945      -2.624339      -0.314737      -0.873817      -0.370653
      5   2   -1.0000      -1.201006      -0.241045      -4.554877       0.199214       0.829135      -0.522350
ITEM: TIMESTEP
100
ITEM: NUMBER OF ATOMS
5
ITEM: BOX BOUNDS ff ff ff
-5.00000000    5.00000000     
-5.00000000    5.00000000     
-5.00000000    5.00000000     
ITEM: ATOMS id type q x y z mux muy muz
      1   1    1.0000      -3.135766       1.998168      -2.124486       0.251914      -0.758923       0.600480
      2   2   -1.0000      -2.048983      -2.050922       2.294087       0.978168      -0.158344       0.134587
      3   1    1.0000      -2.636167      -4.976035       2.152580      -0.367592      -0.359673       0.857620
      4   2   -1.0000      -3.304245      -3.932027      -2.574176      -0.332484      -0.793744      -0.509338
      5   2   -1.0000      -1.202097      -0.251346      -4.612663       0.187238       0.830425      -0.524724
ITEM: TIMESTEP
200
ITEM: NUMBER OF ATOMS
5
ITEM: BOX BOUNDS ff ff ff
-5.00000000    5.00000000     
-5.00000000    5.00000000     
-5.00000000    5.00000000     
ITEM: ATOMS id type q x y z mux muy muz
      1   1    1.0000      -3.159513       1.983982      -2.155300       0.242703      -0.780584       0.576007
      2   2   -1.0000      -2.072645      -2.065647       2.332648       0.979186      -0.151556       0.135003
      3   1    1.0000      -2.571480      -4.960353       2.152160      -0.364950      -0.350836       0.862395
      4   2   -1.0000      -3.320505      -3.909617      -2.523999      -0.339099      -0.692080      -0.637211
      5   2   -1.0000      -1.203115      -0.260526      -4.670167       0.174208       0.828406      -0.532349
ITEM: TIMESTEP
300
ITEM: NUMBER OF ATOMS
5
ITEM: BOX BOUNDS ff ff ff
-5.00000000    5.00000000     
-5.00000000    5.00000000     
-5.00000000    5.00000000     
ITEM: ATOMS id type q x y z mux muy muz
      1   1    1.0000      -3.182772       1.968750      -2.186291       0.232401      -0.809980       0.538444
      2   2   -1.0000      -2.096255      -2.080878       2.371740       0.982299      -0.137055       0.127693
      3   1    1.0000      -2.507076      -4.943709       2.151101      -0.367227      -0.328243       0.870288
      4   2   -1.0000      -3.337049      -3.887674      -2.473837      -0.334080      -0.571475      -0.749538
      5   2   -1.0000      -1.204106      -0.268651      -4.727370       0.160209       0.822327      -0.545996
ITEM: TIMESTEP
400
ITEM: NUMBER OF ATOMS
5
ITEM: BOX BOUNDS ff ff ff
-5.00000000    5.00000000     
-5.00000000    5.00000000     
-5.00000000    5.00000000     
ITEM: ATOMS id type q x y z mux muy muz
      1   1    1.0000      -3.205529       1.952497      -2.217440       0.220642      -0.846166       0.485097
      2   2   -1.0000      -2.119774      -2.096684       2.411360       0.987416      -0.112656       0.110986
      3   1    1.0000      -2.443001      -4.926033       2.149389      -0.375710      -0.288473       0.880696
      4   2   -1.0000      -3.353832      -3.866156      -2.423719      -0.317556      -0.436136      -0.841988
      5   2   -1.0000      -1.205122      -0.275786      -4.784248       0.145465       0.811231      -0.566343
ITEM: TIMESTEP
500
ITEM: NUMBER OF ATOMS
5
ITEM: BOX BOUNDS ff ff ff
-5.00000000    5.00000000     
-5.00000000    5.00000000     
-5.00000000    5.00000000     
ITEM: ATOMS id type q x y z mux muy muz
      1   1    1.0000      -3.227767       1.935246      -2.248732       0.207024      -0.886570       0.413685
      2   2   -1.0000      -2.143155      -2.113170       2.451501       0.993616      -0.076009       0.083364
      3   1    1.0000      -2.379304      -4.907232       2.147016      -0.391212      -0.227919       0.891631
      4   2   -1.0000      -3.370813      -3.845021      -2.373676      -0.290504      -0.292002      -0.911231
      5   2   -1.0000      -1.206219      -0.281985      -4.840766       0.130402       0.794037      -0.593718
ITEM: TIMESTEP
600
ITEM: NUMBER OF ATOMS
5
ITEM: BOX BOUNDS ff ff ff
-5.00000000    5.00000000     
-5.00000000    5.00000000     
-5.00000000    5.00000000     
ITEM: ATOMS id type q x y z mux muy muz
      1   1    1.0000      -3.249467       1.917024      -2.280160       0.191250      -0.926759       0.323328
      2   2   -1.0000      -2.166339      -2.130486       2.492143       0.998721      -0.025021       0.043928
      3   1    1.0000      -2.316045      -4.887175       2.143981      -0.413490      -0.143662       0.899104
      4   2   -1.0000      -3.387951      -3.824233      -2.323737      -0.254853      -0.146272      -0.955853
      5   2   -1.0000      -1.207456      -0.287292      -4.896884       0.115668       0.769739      -0.627792
ITEM: TIMESTEP
700
ITEM: NUMBER OF ATOMS
5
ITEM: BOX BOUNDS ff ff ff
-5.00000000    5.00000000     
-5.00000000    5.00000000     
-5.00000000    5.00000000     
ITEM: ATOMS id type q x y z mux muy muz
      1   1    1.0000      -3.270604       1.897859      -2.311723       0.173322      -0.960986       0.215557
      2   2   -1.0000      -2.189249      -2.148838       2.533246       0.999111       0.041556      -0.007036
      3   1    1.0000      -2.253302      -4.865686       2.140300      -0.440698      -0.034748       0.896983
      4   2   -1.0000      -3.405210      -3.803756      -2.273926      -0.213279      -0.006219      -0.976972
      5   2   -1.0000      -1.208893      -0.291741      -4.952555       0.102075       0.737670      -0.667401
ITEM: TIMESTEP
800
ITEM: NUMBER OF ATOMS
5
ITEM: BOX BOUNDS ff ff ff
-5.00000000    5.00000000     
-5.00000000    5.00000000     
-5.00000000    5.00000000     
ITEM: ATOMS id type q x y z mux muy muz
      1   1    1.0000      -3.291150       1.877780      -2.343425       0.153675      -0.983583       0.094593
      2   2   -1.0000      -2.211785      -2.168489       2.574737       0.990016       0.123643      -0.067680
      3   1    1.0000      -2.191182      -4.842539       2.136018      -0.469240       0.096600       0.877771
      4   2   -1.0000      -3.422553      -3.783560      -2.224261      -0.168672       0.122312      -0.978054
      5   2   -1.0000      -1.210588      -0.295355      -4.992270       0.090453       0.697685      -0.710671
ITEM: TIMESTEP
900
ITEM: NUMBER OF ATOMS
5
ITEM: BOX BOUNDS ff ff ff
-5.00000000    5.00000000     
-5.00000000    5.00000000     
-5.00000000    5.00000000     
ITEM: ATOMS id type q x y z mux muy muz
      1   1    1.0000      -3.311063       1.856817      -2.375270       0.133167      -0.990527      -0.033500
      2   2   -1.0000      -2.233809      -2.189755       2.616487       0.966232       0.219700      -0.134641
      3   1    1.0000      -2.129836      -4.817467       2.131221      -0.494261       0.244530       0.834213
      4   2   -1.0000      -3.439946      -3.763621      -2.174757      -0.123510       0.235921      -0.963891
      5   2   -1.0000      -1.212605      -0.298136      -4.937386       0.081549       0.650090      -0.755468
ITEM: TIMESTEP
1000
ITEM: NUMBER OF ATOMS
5
ITEM: BOX BOUNDS ff ff ff
-5.00000000    5.00000000     
-5.00000000    5.00000000     
-5.00000000    5.00000000     
ITEM: ATOMS id type q x y z mux muy muz
      1   1    1.0000      -3.330252       1.835001      -2.407225       0.112962      -0.980263      -0.162250
      2   2   -1.0000      -2.255129      -2.212961       2.658251       0.922916       0.326883      -0.203406
      3   1    1.0000      -2.069528      -4.790200       2.126063      -0.510560       0.400022       0.761125
      4   2   -1.0000      -3.457333      -3.743952      -2.125479      -0.079485       0.333664      -0.939335
      5   2   -1.0000      -1.215016      -0.300049      -4.882702       0.076055       0.595338      -0.799868
ITEM: TIMESTEP
1100
ITEM: NUMBER OF ATOMS
5
ITEM: BOX BOUNDS ff ff ff
-5.00000000    5.00000000     
-5.00000000    5.00000000     
-5.00000000    5.00000000     
ITEM: ATOMS id type q x y z mux muy muz
      1   1    1.0000      -3.348645       1.812335      -2.439290       0.094248      -0.953553      -0.286102
      2   2   -1.0000      -2.275549      -2.238469       2.699756       0.856174       0.441295      -0.268747
      3   1    1.0000      -2.010487      -4.760431       2.120763      -0.513619       0.552106       0.656791
      4   2   -1.0000      -3.474675      -3.724543      -2.076427      -0.037546       0.416287      -0.908458
      5   2   -1.0000      -1.217902      -0.301055      -4.828207       0.074468       0.533904      -0.842260
ITEM: TIMESTEP
1200
ITEM: NUMBER OF ATOMS
5
ITEM: BOX BOUNDS ff ff ff
-5.00000000    5.00000000     
-5.00000000    5.00000000     
-5.00000000    5.00000000     
ITEM: ATOMS id type q x y z mux muy muz
      1   1    1.0000      -3.366164       1.788822      -2.471464       0.078068      -0.912693      -0.401120
      2   2   -1.0000      -2.294860      -2.266619       2.740649       0.763378       0.558159      -0.325135
      3   1    1.0000      -1.952960      -4.727869       2.115617      -0.500448       0.689499       0.523586
      4   2   -1.0000      -3.491929      -3.705382      -2.027591       0.001909       0.485418      -0.874280
      5   2   -1.0000      -1.221345      -0.301115      -4.773895       0.077110       0.466138      -0.881345
ITEM: TIMESTEP
1300
ITEM: NUMBER OF ATOMS
5
ITEM: BOX BOUNDS ff ff ff
-5.00000000    5.00000000     
-5.00000000    5.00000000     
-5.00000000    5.00000000     
ITEM: ATOMS id type q x y z mux muy muz
      1   1    1.0000      -3.382731       1.764463      -2.503737       0.065257      -0.860628      -0.505036
      2   2   -1.0000      -2.312850      -2.297700       2.780502       0.643327       0.671864      -0.367055
      3   1    1.0000      -1.897203      -4.692272       2.110996      -0.470107       0.802333       0.367779
      4   2   -1.0000      -3.509047      -3.686459      -1.978964       0.038828       0.542973      -0.838852
      5   2   -1.0000      -1.225428      -0.300194      -4.719768       0.084177       0.392193      -0.916023
ITEM: TIMESTEP
1400
ITEM: NUMBER OF ATOMS
5
ITEM: BOX BOUNDS ff ff ff
-5.00000000    5.00000000     
-5.00000000    5.00000000     
-5.00000000    5.00000000     
ITEM: ATOMS id type q x y z mux muy muz
      1   1    1.0000      -3.398263       1.739258      -2.536095       0.056469      -0.800305      -0.596928
      2   2   -1.0000      -2.329323      -2.331927       2.818827       0.496376       0.775937      -0.389273
      3   1    1.0000      -1.843466      -4.653467       2.107331      -0.423852       0.883691       0.198593
      4   2   -1.0000      -3.525974      -3.667767      -1.930541       0.073334       0.590821      -0.803463
      5   2   -1.0000      -1.230233      -0.298259      -4.665836       0.095801       0.312018      -0.945234
ITEM: TIMESTEP
1500
ITEM: NUMBER OF ATOMS
5
ITEM: BOX BOUNDS ff ff ff
-5.00000000    5.00000000     
-5.00000000    5.00000000     
-5.00000000    5.00000000     
ITEM: ATOMS id type q x y z mux muy muz
      1   1    1.0000      -3.412673       1.713211      -2.568511       0.052244      -0.734331      -0.676778
      2   2   -1.0000      -2.344106      -2.369416       2.855099       0.324667       0.862990      -0.387091
      3   1    1.0000      -1.791980      -4.611371       2.105092      -0.364898       0.930663       0.026766
      4   2   -1.0000      -3.542655      -3.649306      -1.882333       0.105625       0.630627      -0.768865
      5   2   -1.0000      -1.235844      -0.295280      -4.612129       0.112068       0.225423      -0.967794
ITEM: TIMESTEP
1600
ITEM: NUMBER OF ATOMS
5
ITEM: BOX BOUNDS ff ff ff
-5.00000000    5.00000000     
-5.00000000    5.00000000     
-5.00000000    5.00000000     
ITEM: ATOMS id type q x y z mux muy muz
      1   1    1.0000      -3.425869       1.686328      -2.600946       0.053080      -0.664884      -0.745058
      2   2   -1.0000      -2.357063      -2.410194       2.888784       0.132519       0.924776      -0.356691
      3   1    1.0000      -1.742950      -4.565987       2.104760      -0.297876       0.944715      -0.137054
      4   2   -1.0000      -3.559033      -3.631080      -1.834374       0.135909       0.663801      -0.735457
      5   2   -1.0000      -1.242344      -0.291230      -4.558693       0.133024       0.132203      -0.982256
ITEM: TIMESTEP
1700
ITEM: NUMBER OF ATOMS
5
ITEM: BOX BOUNDS ff ff ff
-5.00000000    5.00000000     
-5.00000000    5.00000000     
-5.00000000    5.00000000     
ITEM: ATOMS id type q x y z mux muy muz
      1   1    1.0000      -3.437751       1.658623      -2.633344       0.059496      -0.593779      -0.802425
      2   2   -1.0000      -2.368084      -2.454196       2.919362      -0.073023       0.952505      -0.295638
      3   1    1.0000      -1.696561      -4.517400       2.106802      -0.228130       0.931373      -0.283726
      4   2   -1.0000      -3.575050      -3.613106      -1.786723       0.164369       0.691506      -0.703422
      5   2   -1.0000      -1.249813      -0.286084      -4.505599       0.158628       0.032318      -0.986809
ITEM: TIMESTEP
1800
ITEM: NUMBER OF ATOMS
5
ITEM: BOX BOUNDS ff ff ff
-5.00000000    5.00000000     
-5.00000000    5.00000000     
-5.00000000    5.00000000     
ITEM: ATOMS id type q x y z mux muy muz
      1   1    1.0000      -3.448213       1.630119      -2.665636       0.072056      -0.522597      -0.849530
      2   2   -1.0000      -2.377077      -2.501294       2.946348      -0.281655       0.937662      -0.203616
      3   1    1.0000      -1.652985      -4.465755       2.111648      -0.161017       0.899317      -0.406575
      4   2   -1.0000      -3.590653      -3.595411      -1.739468       0.191149       0.714686      -0.672819
      5   2   -1.0000      -1.258330      -0.279821      -4.452943       0.188686      -0.073868      -0.979255
ITEM: TIMESTEP
1900
ITEM: NUMBER OF ATOMS
5
ITEM: BOX BOUNDS ff ff ff
-5.00000000    5.00000000     
-5.00000000    5.00000000     
-5.00000000    5.00000000     
ITEM: ATOMS id type q x y z mux muy muz
      1   1    1.0000      -3.457143       1.600855      -2.697735       0.091361      -0.452814      -0.886912
      2   2   -1.0000      -2.383948      -2.551320       2.969305      -0.479645       0.873498      -0.083321
      3   1    1.0000      -1.612407      -4.411237       2.119677      -0.101355       0.859085      -0.501697
      4   2   -1.0000      -3.605788      -3.578035      -1.692733       0.216342       0.734105      -0.643650
      5   2   -1.0000      -1.267973      -0.272425      -4.400850       0.222745      -0.185309      -0.957103
ITEM: TIMESTEP
2000
ITEM: NUMBER OF ATOMS
5
ITEM: BOX BOUNDS ff ff ff
-5.00000000    5.00000000     
-5.00000000    5.00000000     
-5.00000000    5.00000000     
ITEM: ATOMS id type q x y z mux muy muz
      1   1    1.0000      -3.464422       1.570884      -2.729533       0.118002      -0.385888      -0.914968
      2   2   -1.0000      -2.388575      -2.604095       2.987841      -0.650575       0.757164       0.058770
      3   1    1.0000      -1.575048      -4.354034       2.131212      -0.053130       0.821602      -0.567581
      4   2   -1.0000      -3.620406      -3.561032      -1.646680       0.239990       0.750388      -0.615891
      5   2   -1.0000      -1.278808      -0.263885      -4.349479       0.259994      -0.300023      -0.917818
ITEM: TIMESTEP
2100
ITEM: NUMBER OF ATOMS
5
ITEM: BOX BOUNDS ff ff ff
-5.00000000    5.00000000     
-5.00000000    5.00000000     
-5.00000000    5.00000000     
ITEM: ATOMS id type q x y z mux muy muz
      1   1    1.0000      -3.469929       1.540290      -2.760906       0.152479      -0.323279      -0.933938
      2   2   -1.0000      -2.390774      -2.659462       3.001599      -0.777448       0.592054       0.212241
      3   1    1.0000      -1.541208      -4.294318       2.146522      -0.019502       0.796661      -0.604111
      4   2   -1.0000      -3.634455      -3.544473      -1.601514       0.262090       0.764056      -0.589515
      5   2   -1.0000      -1.290893      -0.254200      -4.299029       0.299201      -0.414934      -0.859249
ITEM: TIMESTEP
2200
ITEM: NUMBER OF ATOMS
5
ITEM: BOX BOUNDS ff ff ff
-5.00000000    5.00000000     
-5.00000000    5.00000000     
-5.00000000    5.00000000     
ITEM: ATOMS id type q x y z mux muy muz
      1   1    1.0000      -3.473544       1.509194      -2.791696       0.195099      -0.266410      -0.943908
      2   2   -1.0000      -2.390265      -2.717312       3.010247      -0.846199       0.389393       0.363757
      3   1    1.0000      -1.511309      -4.232212       2.165826      -0.003043       0.791456      -0.611219
      4   2   -1.0000      -3.647875      -3.528449      -1.557500       0.282601       0.775553      -0.564494
      5   2   -1.0000      -1.304264      -0.243383      -4.249747       0.338724      -0.525936      -0.780165
ITEM: TIMESTEP
2300
ITEM: NUMBER OF ATOMS
5
ITEM: BOX BOUNDS ff ff ff
-5.00000000    5.00000000     
-5.00000000    5.00000000     
-5.00000000    5.00000000     
ITEM: ATOMS id type q x y z mux muy muz
      1   1    1.0000      -3.475156       1.477778      -2.821709       0.245877      -0.216566      -0.944798
      2   2   -1.0000      -2.386633      -2.777612       3.013473      -0.849851       0.167954       0.499544
      3   1    1.0000      -1.485954      -4.167771       2.189284      -0.006043       0.809110      -0.587626
      4   2   -1.0000      -3.660592      -3.513079      -1.514978       0.301477       0.785277      -0.540788
      5   2   -1.0000      -1.318923      -0.231478      -4.201954       0.376662      -0.628247      -0.680758
ITEM: TIMESTEP
2400
ITEM: NUMBER OF ATOMS
5
ITEM: BOX BOUNDS ff ff ff
-5.00000000    5.00000000     
-5.00000000    5.00000000     
-5.00000000    5.00000000     
ITEM: ATOMS id type q x y z mux muy muz
      1   1    1.0000      -3.474679       1.446315      -2.850697       0.304481      -0.174772      -0.936347
      2   2   -1.0000      -2.379275      -2.840429       3.011009      -0.791746      -0.048733       0.608904
      3   1    1.0000      -1.465984      -4.100964       2.216953      -0.030601       0.847267      -0.530285
      4   2   -1.0000      -3.672511      -3.498511      -1.474389       0.318709       0.793583      -0.518315
      5   2   -1.0000      -1.334809      -0.218572      -4.156065       0.411107      -0.717060      -0.562864
ITEM: TIMESTEP
2500
ITEM: NUMBER OF ATOMS
5
ITEM: BOX BOUNDS ff ff ff
-5.00000000    5.00000000     
-5.00000000    5.00000000     
-5.00000000    5.00000000     
ITEM: ATOMS id type q x y z mux muy muz
      1   1    1.0000      -3.472074       1.415200      -2.878337       0.370273      -0.141699      -0.918052
      2   2   -1.0000      -2.367354      -2.905943       3.002712      -0.686310      -0.236981       0.687618
      3   1    1.0000      -1.452547      -4.031662       2.248697      -0.078305       0.896979      -0.435083
      4   2   -1.0000      -3.683508      -3.484934      -1.436298       0.334373       0.800795      -0.496913
      5   2   -1.0000      -1.351774      -0.204824      -4.112615       0.440441      -0.788263      -0.429712
ITEM: TIMESTEP
2600
ITEM: NUMBER OF ATOMS
5
ITEM: BOX BOUNDS ff ff ff
-5.00000000    5.00000000     
-5.00000000    5.00000000     
-5.00000000    5.00000000     
ITEM: ATOMS id type q x y z mux muy muz
      1   1    1.0000      -3.467391       1.384989      -2.904227       0.442411      -0.117651      -0.889062
      2   2   -1.0000      -2.349721      -2.974466       2.988700      -0.557100      -0.377146       0.739865
      3   1    1.0000      -1.447172      -3.959619       2.284049      -0.149482       0.942458      -0.299044
      4   2   -1.0000      -3.693437      -3.472574      -1.401399       0.348685       0.807196      -0.476291
      5   2   -1.0000      -1.369537      -0.190493      -4.072276       0.463539      -0.838907      -0.285249
ITEM: TIMESTEP
2700
ITEM: NUMBER OF ATOMS
5
ITEM: BOX BOUNDS ff ff ff
-5.00000000    5.00000000     
-5.00000000    5.00000000     
-5.00000000    5.00000000     
ITEM: ATOMS id type q x y z mux muy muz
      1   1    1.0000      -3.460818       1.356423      -2.927872       0.519846      -0.102694      -0.848065
      2   2   -1.0000      -2.324762      -3.046510       2.969526      -0.434012      -0.454525       0.777843
      3   1    1.0000      -1.451912      -3.884411       2.322043      -0.242282       0.962254      -0.123963
      4   2   -1.0000      -3.702131      -3.461689      -1.370498       0.362014       0.813009      -0.456028
      5   2   -1.0000      -1.387635      -0.175975      -4.035853       0.479777      -0.867164      -0.133570
ITEM: TIMESTEP
2800
ITEM: NUMBER OF ATOMS
5
ITEM: BOX BOUNDS ff ff ff
-5.00000000    5.00000000     
-5.00000000    5.00000000     
-5.00000000    5.00000000     
ITEM: ATOMS id type q x y z mux muy muz
      1   1    1.0000      -3.452759       1.330462      -2.948682       0.600652      -0.096894      -0.793617
      2   2   -1.0000      -2.289895      -3.122975       2.946222      -0.352877      -0.454434       0.817904
      3   1    1.0000      -1.469830      -3.805236       2.361179      -0.351839       0.932807       0.077979
      4   2   -1.0000      -3.709409      -3.452567      -1.344487       0.374793       0.818340      -0.435718
      5   2   -1.0000      -1.405366      -0.161847      -4.004291       0.488928      -0.872090       0.020234
ITEM: TIMESTEP
2900
ITEM: NUMBER OF ATOMS
5
ITEM: BOX BOUNDS ff ff ff
-5.00000000    5.00000000     
-5.00000000    5.00000000     
-5.00000000    5.00000000     
ITEM: ATOMS id type q x y z mux muy muz
      1   1    1.0000      -3.443956       1.308391      -2.965892       0.679456      -0.100308      -0.726827
      2   2   -1.0000      -2.241142      -3.204640       2.920586      -0.356865      -0.351716       0.865415
      3   1    1.0000      -1.505441      -3.721429       2.399124      -0.469823       0.838943       0.274665
      4   2   -1.0000      -3.715072      -3.445521      -1.324348       0.387150       0.823016      -0.415645
      5   2   -1.0000      -1.421648      -0.148963      -3.978744       0.491574      -0.854981       0.165413
ITEM: TIMESTEP
3000
ITEM: NUMBER OF ATOMS
5
ITEM: BOX BOUNDS ff ff ff
-5.00000000    5.00000000     
-5.00000000    5.00000000     
-5.00000000    5.00000000     
ITEM: ATOMS id type q x y z mux muy muz
      1   1    1.0000      -3.434837       1.290034      -2.979928       0.744000      -0.111636      -0.658788
      2   2   -1.0000      -2.242015      -3.247715       2.944381      -0.468936      -0.126098       0.874184
      3   1    1.0000      -1.494747      -3.676735       2.384523      -0.585925       0.697332       0.412819
      4   2   -1.0000      -3.719354      -3.440302      -1.309446       0.398115       0.826418      -0.398168
      5   2   -1.0000      -1.436305      -0.137445      -3.958524       0.490922      -0.825303       0.279054
ITEM: TIMESTEP
3100
ITEM: NUMBER OF ATOMS
5
ITEM: BOX BOUNDS ff ff ff
-5.00000000    5.00000000     
-5.00000000    5.00000000     
-5.00000000    5.00000000     
ITEM: ATOMS id type q x y z mux muy muz
      1   1    1.0000      -3.423080       1.270071      -2.995085       0.786327      -0.127220      -0.604570
      2   2   -1.0000      -2.278314      -3.268653       3.009597      -0.598972       0.127734       0.790516
      3   1    1.0000      -1.448882      -3.654224       2.328227      -0.681431       0.549735       0.483159
      4   2   -1.0000      -3.723595      -3.435263      -1.295134       0.406498       0.828228      -0.385742
      5   2   -1.0000      -1.453388      -0.124094      -3.937418       0.492165      -0.798400       0.346888
ITEM: TIMESTEP
3200
ITEM: NUMBER OF ATOMS
5
ITEM: BOX BOUNDS ff ff ff
-5.00000000    5.00000000     
-5.00000000    5.00000000     
-5.00000000    5.00000000     
ITEM: ATOMS id type q x y z mux muy muz
      1   1    1.0000      -3.404814       1.242370      -3.016169       0.816088      -0.147030      -0.558912
      2   2   -1.0000      -2.270860      -3.317031       3.055335      -0.687301       0.338299       0.642784
      3   1    1.0000      -1.444245      -3.603893       2.293697      -0.752743       0.393024       0.528119
      4   2   -1.0000      -3.729023      -3.428902      -1.277222       0.413681       0.828978      -0.376383
      5   2   -1.0000      -1.478317      -0.104706      -3.908894       0.498073      -0.776517       0.385933
ITEM: TIMESTEP
3300
ITEM: NUMBER OF ATOMS
5
ITEM: BOX BOUNDS ff ff ff
-5.00000000    5.00000000     
-5.00000000    5.00000000     
-5.00000000    5.00000000     
ITEM: ATOMS id type q x y z mux muy muz
      1   1    1.0000      -3.381315       1.209462      -3.041397       0.839948      -0.173471      -0.514193
      2   2   -1.0000      -2.215030      -3.380605       3.058420      -0.733265       0.484016       0.477546
      3   1    1.0000      -1.486790      -3.538240       2.302831      -0.792275       0.203104       0.575369
      4   2   -1.0000      -3.735036      -3.421876      -1.257623       0.420997       0.828845      -0.368481
      5   2   -1.0000      -1.509087      -0.080904      -3.875557       0.510770      -0.757550       0.406487
ITEM: TIMESTEP
3400
ITEM: NUMBER OF ATOMS
5
ITEM: BOX BOUNDS ff ff ff
-5.00000000    5.00000000     
-5.00000000    5.00000000     
-5.00000000    5.00000000     
ITEM: ATOMS id type q x y z mux muy muz
      1   1    1.0000      -3.359459       1.181135      -3.063365       0.860248      -0.209911      -0.464662
      2   2   -1.0000      -2.181592      -3.420256       3.059022      -0.756227       0.544148       0.363350
      3   1    1.0000      -1.509735      -3.497017       2.311761      -0.766795      -0.046468       0.640208
      4   2   -1.0000      -3.739822      -3.416272      -1.242151       0.429474       0.827686      -0.361230
      5   2   -1.0000      -1.536651      -0.059752      -3.847235       0.533333      -0.739760       0.410257
ITEM: TIMESTEP
3500
ITEM: NUMBER OF ATOMS
5
ITEM: BOX BOUNDS ff ff ff
-5.00000000    5.00000000     
-5.00000000    5.00000000     
-5.00000000    5.00000000     
ITEM: ATOMS id type q x y z mux muy muz
      1   1    1.0000      -3.325919       1.140528      -3.095268       0.874940      -0.255997      -0.411030
      2   2   -1.0000      -2.208942      -3.448377       3.112109      -0.778886       0.509561       0.365628
      3   1    1.0000      -1.468574      -3.466903       2.271040      -0.639326      -0.319473       0.699427
      4   2   -1.0000      -3.746161      -3.408841      -1.221766       0.439046       0.825462      -0.354755
      5   2   -1.0000      -1.577663      -0.028570      -3.807031       0.566799      -0.723384       0.394278
ITEM: TIMESTEP
3600
ITEM: NUMBER OF ATOMS
5
ITEM: BOX BOUNDS ff ff ff
-5.00000000    5.00000000     
-5.00000000    5.00000000     
-5.00000000    5.00000000     
ITEM: ATOMS id type q x y z mux muy muz
      1   1    1.0000      -3.286325       1.095302      -3.131231       0.881221      -0.305725      -0.360529
      2   2   -1.0000      -2.212118      -3.472141       3.124866      -0.793472       0.407602       0.451955
      3   1    1.0000      -1.451191      -3.441109       2.270863      -0.456951      -0.523220       0.719330
      4   2   -1.0000      -3.752707      -3.401182      -1.200771       0.448468       0.822648      -0.349466
      5   2   -1.0000      -1.624918       0.006968      -3.762572       0.607382      -0.709292       0.357760
ITEM: TIMESTEP
3700
ITEM: NUMBER OF ATOMS
5
ITEM: BOX BOUNDS ff ff ff
-5.00000000    5.00000000     
-5.00000000    5.00000000     
-5.00000000    5.00000000     
ITEM: ATOMS id type q x y z mux muy muz
      1   1    1.0000      -3.238938       1.044355      -3.172177       0.879070      -0.359981      -0.312488
      2   2   -1.0000      -2.177670      -3.496508       3.091477      -0.779548       0.251392       0.573678
      3   1    1.0000      -1.470960      -3.414619       2.317138      -0.285417      -0.634530       0.718269
      4   2   -1.0000      -3.759495      -3.393307      -1.179104       0.458088       0.819427      -0.344521
      5   2   -1.0000      -1.680195       0.047917      -3.712887       0.655442      -0.694458       0.296856
ITEM: TIMESTEP
3800
ITEM: NUMBER OF ATOMS
5
ITEM: BOX BOUNDS ff ff ff
-5.00000000    5.00000000     
-5.00000000    5.00000000     
-5.00000000    5.00000000     
ITEM: ATOMS id type q x y z mux muy muz
      1   1    1.0000      -3.195861       1.001487      -3.206860       0.867256      -0.422214      -0.263824
      2   2   -1.0000      -2.159608      -3.525365       3.080658      -0.721504       0.046997       0.690814
      3   1    1.0000      -1.478002      -3.384109       2.337546      -0.192758      -0.650327       0.734792
      4   2   -1.0000      -3.764622      -3.387485      -1.162948       0.468890       0.815707      -0.338768
      5   2   -1.0000      -1.729165       0.083310      -3.671690       0.712116      -0.672434       0.201801
ITEM: TIMESTEP
3900
ITEM: NUMBER OF ATOMS
5
ITEM: BOX BOUNDS ff ff ff
-5.00000000    5.00000000     
-5.00000000    5.00000000     
-5.00000000    5.00000000     
ITEM: ATOMS id type q x y z mux muy muz