ITEM: TIMESTEP
0
ITEM: NUMBER OF ATOMS
5
ITEM: BOX BOUNDS ff ff ff
-5.00000000    5.00000000     
-5.00000000    5.00000000     
-5.00000000    5.00000000     
ITEM: ATOMS id type q x y z mux muy muz
      1   1    1.0000       1.017930       4.299019       3.566685       0.487097      -0.057059       0.871482
      2   2   -1.0000      -0.396591       3.265357      -0.768457       0.143284      -0.525343      -0.838740
      3   1    1.0000      -2.477127       4.834249      -1.961116       0.516161      -0.138733       0.845181
      4   2   -1.0000      -1.762417       4.897239      -3.660858       0.566117      -0.818670       0.096391
      5   2   -1.0000       2.605766       4.357973       0.117839      -0.675292       0.627061       0.388298
ITEM: TIMESTEP
100
ITEM: NUMBER OF ATOMS
5
ITEM: BOX BOUNDS ff ff ff
-5.00000000    5.00000000     
-5.00000000    5.00000000     
-5.00000000    5.00000000     
ITEM: ATOMS id type q x y z mux muy muz
      1   1    1.0000       1.001122       4.237292       3.541113       0.489642      -0.053593       0.870275
      2   2   -1.0000      -0.437579       3.302070      -0.719880       0.155550      -0.529958      -0.833636
      3   1    1.0000      -2.496873       4.843681      -1.959852       0.527906      -0.134540       0.838579
      4   2   -1.0000      -1.727730       4.928270      -3.674181       0.555148      -0.823824       0.114567
      5   2   -1.0000       2.648620       4.342523       0.106893      -0.634991       0.623782       0.455723
ITEM: TIMESTEP
200
ITEM: NUMBER OF ATOMS
5
ITEM: BOX BOUNDS ff ff ff
-5.00000000    5.00000000     
-5.00000000    5.00000000     
-5.00000000    5.00000000     
ITEM: ATOMS id type q x y z mux muy muz
      1   1    1.0000       0.984531       4.176127       3.515192       0.498013      -0.051734       0.865625
      2   2   -1.0000      -0.480097       3.339245      -0.672335       0.191439      -0.541144      -0.818849
      3   1    1.0000      -2.516083       4.852346      -1.957787       0.567074      -0.120778       0.814764
      4   2   -1.0000      -1.692300       4.958965      -3.687291       0.538603      -0.832749       0.128207
      5   2   -1.0000       2.691509       4.327154       0.096315      -0.597772       0.614869       0.514397
ITEM: TIMESTEP
300
ITEM: NUMBER OF ATOMS
5
ITEM: BOX BOUNDS ff ff ff
-5.00000000    5.00000000     
-5.00000000    5.00000000     
-5.00000000    5.00000000     
ITEM: ATOMS id type q x y z mux muy muz
      1   1    1.0000       0.968135       4.115483       3.488924       0.513235      -0.051784       0.856685
      2   2   -1.0000      -0.524112       3.376912      -0.625852       0.255093      -0.558546      -0.789274
      3   1    1.0000      -2.534670       4.860338      -1.955112       0.635843      -0.094733       0.765983
      4   2   -1.0000      -1.656207       4.989255      -3.699933       0.516158      -0.845956       0.133941
      5   2   -1.0000       2.734415       4.311849       0.086066      -0.565451       0.602315       0.563456
ITEM: TIMESTEP
400
ITEM: NUMBER OF ATOMS
5
ITEM: BOX BOUNDS ff ff ff
-5.00000000    5.00000000     
-5.00000000    5.00000000     
-5.00000000    5.00000000     
ITEM: ATOMS id type q x y z mux muy muz
      1   1    1.0000       0.951907       4.055305       3.462298       0.535536      -0.053916       0.842790
      2   2   -1.0000      -0.569601       3.415146      -0.580488       0.346030      -0.578937      -0.738306
      3   1    1.0000      -2.552534       4.867764      -1.952067       0.728690      -0.054783       0.682649
      4   2   -1.0000      -1.619527       4.980820      -3.711769       0.488524      -0.863232       0.127180
      5   2   -1.0000       2.777316       4.296589       0.076119      -0.539540       0.588397       0.602234
ITEM: TIMESTEP
500
ITEM: NUMBER OF ATOMS
5
ITEM: BOX BOUNDS ff ff ff
-5.00000000    5.00000000     
-5.00000000    5.00000000     
-5.00000000    5.00000000     
ITEM: ATOMS id type q x y z mux muy muz
      1   1    1.0000       0.935831       3.995575       3.435321       0.563817      -0.057998       0.823861
      2   2   -1.0000      -0.616499       3.454035      -0.536361       0.456118      -0.596100      -0.660773
      3   1    1.0000      -2.569539       4.874738      -1.949001       0.829838      -0.002764       0.557997
      4   2   -1.0000      -1.582391       4.950729      -3.722335       0.457784      -0.883051       0.103222
      5   2   -1.0000       2.820158       4.281364       0.066469      -0.520734       0.575279       0.630785
ITEM: TIMESTEP
600
ITEM: NUMBER OF ATOMS
5
ITEM: BOX BOUNDS ff ff ff
-5.00000000    5.00000000     
-5.00000000    5.00000000     
-5.00000000    5.00000000     
ITEM: ATOMS id type q x y z mux muy muz
      1   1    1.0000       0.919888       3.936264       3.407993       0.596086      -0.063601       0.800397
      2   2   -1.0000      -0.664717       3.493683      -0.493595       0.571664      -0.603316      -0.556067
      3   1    1.0000      -2.585482       4.881363      -1.946390       0.917746       0.055708       0.393241
      4   2   -1.0000      -1.545024       4.920227      -3.731035       0.426704      -0.902489       0.058636
      5   2   -1.0000       2.862895       4.266166       0.057121      -0.508572       0.564439       0.650203
ITEM: TIMESTEP
700
ITEM: NUMBER OF ATOMS
5
ITEM: BOX BOUNDS ff ff ff
-5.00000000    5.00000000     
-5.00000000    5.00000000     
-5.00000000    5.00000000     
ITEM: ATOMS id type q x y z mux muy muz
      1   1    1.0000       0.904050       3.877298       3.380292       0.630479      -0.070203       0.773025
      2   2   -1.0000      -0.714172       3.534223      -0.452270       0.679145      -0.596147      -0.428219
      3   1    1.0000      -2.600069       4.887722      -1.944810       0.973622       0.113320       0.198037
      4   2   -1.0000      -1.507773       4.889109      -3.737201       0.397684      -0.917484      -0.008351
      5   2   -1.0000       2.905525       4.250979       0.048083      -0.501839       0.556520       0.662151
ITEM: TIMESTEP
800
ITEM: NUMBER OF ATOMS
5
ITEM: BOX BOUNDS ff ff ff
-5.00000000    5.00000000     
-5.00000000    5.00000000     
-5.00000000    5.00000000     
ITEM: ATOMS id type q x y z mux muy muz
      1   1    1.0000       0.888288       3.818580       3.352181       0.665778      -0.077359       0.742129
      2   2   -1.0000      -0.764755       3.575755      -0.412410       0.768774      -0.573073      -0.283854
      3   1    1.0000      -2.612902       4.893869      -1.944902       0.986537       0.163026      -0.012908
      4   2   -1.0000      -1.471143       4.857235      -3.740143       0.372313      -0.922916      -0.098024
      5   2   -1.0000       2.948072       4.235785       0.039367      -0.499247       0.551638       0.668168
ITEM: TIMESTEP
900
ITEM: NUMBER OF ATOMS
5
ITEM: BOX BOUNDS ff ff ff
-5.00000000    5.00000000     
-5.00000000    5.00000000     
-5.00000000    5.00000000     
ITEM: ATOMS id type q x y z mux muy muz
      1   1    1.0000       0.872574       3.760015       3.323621       0.701351      -0.084750       0.707760
      2   2   -1.0000      -0.816330       3.618326      -0.373971       0.834951      -0.534691      -0.130240
      3   1    1.0000      -2.623472       4.899813      -1.947332       0.954152       0.199140      -0.223467
      4   2   -1.0000      -1.435795       4.824560      -3.739213       0.351444      -0.912586      -0.208982
      5   2   -1.0000       2.990583       4.220568       0.030988      -0.499787       0.549698       0.669362
ITEM: TIMESTEP
1000
ITEM: NUMBER OF ATOMS
5
ITEM: BOX BOUNDS ff ff ff
-5.00000000    5.00000000     
-5.00000000    5.00000000     
-5.00000000    5.00000000     
ITEM: ATOMS id type q x y z mux muy muz
      1   1    1.0000       0.856890       3.701528       3.294577       0.736938      -0.092165       0.669648
      2   2   -1.0000      -0.868730       3.661898      -0.336844       0.875412      -0.482684       0.025900
      3   1    1.0000      -2.631174       4.905512      -1.952734       0.881480       0.217798      -0.418996
      4   2   -1.0000      -1.402530       4.791174      -3.733870       0.335404      -0.879513      -0.337580
      5   2   -1.0000       3.033104       4.205317       0.022965      -0.502791       0.550556       0.666400
ITEM: TIMESTEP
1100
ITEM: NUMBER OF ATOMS
5
ITEM: BOX BOUNDS ff ff ff
-5.00000000    5.00000000     
-5.00000000    5.00000000     
-5.00000000    5.00000000     
ITEM: ATOMS id type q x y z mux muy muz
      1   1    1.0000       0.841233       3.643083       3.265026       0.772454      -0.099473       0.627232
      2   2   -1.0000      -0.921762       3.706337      -0.300860       0.890155      -0.419050       0.178944
      3   1    1.0000      -2.635323       4.910856      -1.961653       0.778889       0.216986      -0.588429
      4   2   -1.0000      -1.372255       4.757317      -3.723739       0.324188      -0.816713      -0.477370
      5   2   -1.0000       3.075667       4.190031       0.015319      -0.507875       0.554085       0.659586
ITEM: TIMESTEP
1200
ITEM: NUMBER OF ATOMS
5
ITEM: BOX BOUNDS ff ff ff
-5.00000000    5.00000000     
-5.00000000    5.00000000     
-5.00000000    5.00000000     
ITEM: ATOMS id type q x y z mux muy muz
      1   1    1.0000       0.825618       3.584708       3.234974       0.807832      -0.106593       0.579694
      2   2   -1.0000      -0.975204       3.751412      -0.265816       0.880487      -0.345649       0.324451
      3   1    1.0000      -2.635187       4.915666      -1.974492       0.659790       0.196207      -0.725383
      4   2   -1.0000      -1.345933       4.723383      -3.708650       0.317633      -0.718413      -0.618863
      5   2   -1.0000       3.118265       4.174724       0.008077      -0.514851       0.560180       0.648943
ITEM: TIMESTEP
1300
ITEM: NUMBER OF ATOMS
5
ITEM: BOX BOUNDS ff ff ff
-5.00000000    5.00000000     
-5.00000000    5.00000000     
-5.00000000    5.00000000     
ITEM: ATOMS id type q x y z mux muy muz
      1   1    1.0000       0.810084       3.526506       3.204461       0.842872      -0.113470       0.526015
      2   2   -1.0000      -1.028810       3.796809      -0.231500       0.848327      -0.264066       0.458923
      3   1    1.0000      -2.630033       4.919684      -1.991477       0.538420       0.155878      -0.828134
      4   2   -1.0000      -1.324521       4.689905      -3.688661       0.315583      -0.581564      -0.749794
      5   2   -1.0000       3.160841       4.159430       0.001271      -0.523640       0.568745       0.634295
ITEM: TIMESTEP
1400
ITEM: NUMBER OF ATOMS
5
ITEM: BOX BOUNDS ff ff ff
-5.00000000    5.00000000     
-5.00000000    5.00000000     
-5.00000000    5.00000000     
ITEM: ATOMS id type q x y z mux muy muz
      1   1    1.0000       0.794692       3.468661       3.173569       0.877076      -0.120043       0.465109
      2   2   -1.0000      -1.082310       3.842150      -0.197724       0.795855      -0.175740       0.579423
      3   1    1.0000      -2.619178       4.922587      -2.012645       0.428089       0.096669      -0.898552
      4   2   -1.0000      -1.308917       4.657527      -3.664044       0.318045      -0.407451      -0.856056
      5   2   -1.0000       3.203273       4.144205      -0.005062      -0.534184       0.579657       0.615342
ITEM: TIMESTEP
1500
ITEM: NUMBER OF ATOMS
5
ITEM: BOX BOUNDS ff ff ff
-5.00000000    5.00000000     
-5.00000000    5.00000000     
-5.00000000    5.00000000     
ITEM: ATOMS id type q x y z mux muy muz
      1   1    1.0000       0.779527       3.411443       3.142423       0.909510      -0.126214       0.396058
      2   2   -1.0000      -1.135411       3.887022      -0.164358       0.725509      -0.082274       0.683277
      3   1    1.0000      -2.602028       4.923989      -2.037863       0.339965       0.019051      -0.940245
      4   2   -1.0000      -1.299903       4.626966      -3.635225       0.325339      -0.203130      -0.923522
      5   2   -1.0000       3.245375       4.129125      -0.010884      -0.546352       0.592704       0.591778
ITEM: TIMESTEP
1600
ITEM: NUMBER OF ATOMS
5
ITEM: BOX BOUNDS ff ff ff
-5.00000000    5.00000000     
-5.00000000    5.00000000     
-5.00000000    5.00000000     
ITEM: ATOMS id type q x y z mux muy muz
      1   1    1.0000       0.764696       3.355202       3.111198       0.938731      -0.131832       0.318442
      2   2   -1.0000      -1.187781       3.930998      -0.131374       0.640204       0.014255       0.768073
      3   1    1.0000      -2.578123       4.923447      -2.066882       0.282233      -0.076612      -0.956282
      4   2   -1.0000      -1.298118       4.598987      -3.602697       0.338258       0.017921      -0.940883
      5   2   -1.0000       3.286887       4.114290      -0.016152      -0.559861       0.607546       0.563421
ITEM: TIMESTEP
1700
ITEM: NUMBER OF ATOMS
5
ITEM: BOX BOUNDS ff ff ff
-5.00000000    5.00000000     
-5.00000000    5.00000000     
-5.00000000    5.00000000     
ITEM: ATOMS id type q x y z mux muy muz
      1   1    1.0000       0.750326       3.300373       3.080118       0.962909      -0.136695       0.232637
      2   2   -1.0000      -1.239042       3.973655      -0.098879       0.543484       0.111193       0.832022
      3   1    1.0000      -2.547166       4.920458      -2.099423       0.259364      -0.189233      -0.947059
      4   2   -1.0000      -1.304035       4.574393      -3.566896       0.358215       0.236886      -0.903088
      5   2   -1.0000       3.327477       4.099818      -0.020827      -0.574238       0.623695       0.530335
ITEM: TIMESTEP
1800
ITEM: NUMBER OF ATOMS
5
ITEM: BOX BOUNDS ff ff ff
-5.00000000    5.00000000     
-5.00000000    5.00000000     
-5.00000000    5.00000000     
ITEM: ATOMS id type q x y z mux muy muz
      1   1    1.0000       0.736566       3.247482       3.049471       0.980139      -0.140577       0.139877
      2   2   -1.0000      -1.288735       4.014566      -0.067155       0.439323       0.205582       0.874489
      3   1    1.0000      -2.509060       4.914446      -2.135277       0.271392      -0.315464      -0.909301
      4   2   -1.0000      -1.317943       4.554035      -3.528074       0.387344       0.432947      -0.813954
      5   2   -1.0000       3.366732       4.085855      -0.024872      -0.588851       0.640581       0.492860
ITEM: TIMESTEP
1900
ITEM: NUMBER OF ATOMS
5
ITEM: BOX BOUNDS ff ff ff
-5.00000000    5.00000000     
-5.00000000    5.00000000     
-5.00000000    5.00000000     
ITEM: ATOMS id type q x y z mux muy muz
      1   1    1.0000       0.723585       3.197161       3.019622       0.988796      -0.143265       0.041927
      2   2   -1.0000      -1.336296       4.053292      -0.036674       0.331501       0.294690       0.896250
      3   1    1.0000      -2.463973       4.904746      -2.174426       0.313398      -0.448151      -0.837223
      4   2   -1.0000      -1.339902       4.538841      -3.486174       0.428497       0.587768      -0.686235
      5   2   -1.0000       3.404147       4.072568      -0.028255      -0.603019       0.657662       0.451496
ITEM: TIMESTEP
2000
ITEM: NUMBER OF ATOMS
5
ITEM: BOX BOUNDS ff ff ff
-5.00000000    5.00000000     
-5.00000000    5.00000000     
-5.00000000    5.00000000     
ITEM: ATOMS id type q x y z mux muy muz
      1   1    1.0000       0.711580       3.150158       2.991025       0.987703      -0.144577      -0.059505
      2   2   -1.0000      -1.381031       4.089358      -0.008083       0.222867       0.376496       0.899211
      3   1    1.0000      -2.412443       4.890616      -2.217179       0.375658      -0.575889      -0.726108
      4   2   -1.0000      -1.369667       4.529817      -3.440717       0.485063       0.688644      -0.538966
      5   2   -1.0000       3.439123       4.060154      -0.030952      -0.616116       0.674545       0.406683
ITEM: TIMESTEP
2100
ITEM: NUMBER OF ATOMS
5
ITEM: BOX BOUNDS ff ff ff
-5.00000000    5.00000000     
-5.00000000    5.00000000     
-5.00000000    5.00000000     
ITEM: ATOMS id type q x y z mux muy muz
      1   1    1.0000       0.700763       3.107338       2.964232       0.975954      -0.144338      -0.163341
      2   2   -1.0000      -1.422099       4.122230       0.017835       0.114844       0.449865       0.885682
      3   1    1.0000      -2.355504       4.871318      -2.264346       0.444940      -0.684653      -0.577303
      4   2   -1.0000      -1.406571       4.527998      -3.390675       0.560499       0.728374      -0.394096
      5   2   -1.0000       3.470971       4.048839      -0.032952      -0.627626       0.691036       0.358546
ITEM: TIMESTEP
2200
ITEM: NUMBER OF ATOMS
5
ITEM: BOX BOUNDS ff ff ff
-5.00000000    5.00000000     
-5.00000000    5.00000000     
-5.00000000    5.00000000     
ITEM: ATOMS id type q x y z mux muy muz
      1   1    1.0000       0.691366       3.069673       2.939906       0.952449      -0.142310      -0.269423
      2   2   -1.0000      -1.458509       4.151288       0.040250       0.007346       0.514382       0.857529
      3   1    1.0000      -2.294824       4.846334      -2.317555       0.507282      -0.761596      -0.403283
      4   2   -1.0000      -1.449401       4.534252      -3.334242       0.657000       0.701877      -0.275172
      5   2   -1.0000       3.498929       4.038873      -0.034265      -0.637118       0.707111       0.306717
ITEM: TIMESTEP
2300
ITEM: NUMBER OF ATOMS
5
ITEM: BOX BOUNDS ff ff ff
-5.00000000    5.00000000     
-5.00000000    5.00000000     
-5.00000000    5.00000000     
ITEM: ATOMS id type q x y z mux muy muz
      1   1    1.0000       0.683628       3.038226       2.918818       0.915361      -0.138106      -0.378207
      2   2   -1.0000      -1.489130       4.175792       0.058387      -0.100767       0.569895       0.815516
      3   1    1.0000      -2.232723       4.815880      -2.379942       0.552478      -0.800236      -0.233216
      4   2   -1.0000      -1.496391       4.548810      -3.268238       0.771121       0.601015      -0.210126
      5   2   -1.0000       3.522177       4.030529      -0.034931      -0.644128       0.722787       0.250355
ITEM: TIMESTEP
2400
ITEM: NUMBER OF ATOMS
5
ITEM: BOX BOUNDS ff ff ff
-5.00000000    5.00000000     
-5.00000000    5.00000000     
-5.00000000    5.00000000     
ITEM: ATOMS id type q x y z mux muy muz
      1   1    1.0000       0.677788       3.014145       2.901878       0.862590      -0.131217      -0.488590
      2   2   -1.0000      -1.512688       4.194820       0.071642      -0.209573       0.615548       0.759724
      3   1    1.0000      -2.177373       4.784104      -2.451289       0.581109      -0.804245      -0.124510
      4   2   -1.0000      -1.540025       4.568129      -3.193102       0.879219       0.412526      -0.238318
      5   2   -1.0000       3.539859       4.024102      -0.035035      -0.647992       0.737791       0.189130
ITEM: TIMESTEP
2500
ITEM: NUMBER OF ATOMS
5
ITEM: BOX BOUNDS ff ff ff
-5.00000000    5.00000000     
-5.00000000    5.00000000     
-5.00000000    5.00000000     
ITEM: ATOMS id type q x y z mux muy muz
      1   1    1.0000       0.671864       2.989445       2.883528       0.798765      -0.121978      -0.589148
      2   2   -1.0000      -1.536837       4.214555       0.084621      -0.309122       0.647972       0.696115
      3   1    1.0000      -2.220013       4.781958      -2.444016       0.610981      -0.774567      -0.163548
      4   2   -1.0000      -1.485295       4.557244      -3.195353       0.909842       0.151255      -0.386406
      5   2   -1.0000       3.557841       4.017444      -0.034686      -0.648053       0.750659       0.128601
ITEM: TIMESTEP
2600
ITEM: NUMBER OF ATOMS
5
ITEM: BOX BOUNDS ff ff ff
-5.00000000    5.00000000     
-5.00000000    5.00000000     
-5.00000000    5.00000000     
ITEM: ATOMS id type q x y z mux muy muz
      1   1    1.0000       0.667355       2.970567       2.868568       0.741160      -0.112721      -0.661798
      2   2   -1.0000      -1.555278       4.229703       0.094232      -0.381227       0.665958       0.641222
      3   1    1.0000      -2.276569       4.792691      -2.431086       0.648678      -0.698940      -0.301164
      4   2   -1.0000      -1.419409       4.536442      -3.203593       0.833237      -0.081983      -0.546804
      5   2   -1.0000       3.571461       4.012269      -0.034027      -0.645253       0.759718       0.080476
ITEM: TIMESTEP
2700
ITEM: NUMBER OF ATOMS
5
ITEM: BOX BOUNDS ff ff ff
-5.00000000    5.00000000     
-5.00000000    5.00000000     
-5.00000000    5.00000000     
ITEM: ATOMS id type q x y z mux muy muz
      1   1    1.0000       0.660376       2.941451       2.844024       0.688874      -0.103236      -0.717492
      2   2   -1.0000      -1.583706       4.252993       0.109021      -0.436323       0.677232       0.592435
      3   1    1.0000      -2.319328       4.804792      -2.462250       0.685236      -0.570841      -0.452318
      4   2   -1.0000      -1.362098       4.508799      -3.164254       0.704587      -0.259921      -0.660301
      5   2   -1.0000       3.592317       4.004124      -0.032447      -0.640659       0.766805       0.039568
ITEM: TIMESTEP
2800
ITEM: NUMBER OF ATOMS
5
ITEM: BOX BOUNDS ff ff ff
-5.00000000    5.00000000     
-5.00000000    5.00000000     
-5.00000000    5.00000000     
ITEM: ATOMS id type q x y z mux muy muz
      1   1    1.0000       0.652364       2.908366       2.814785       0.635124      -0.092173      -0.766891
      2   2   -1.0000      -1.615931       4.279231       0.126334      -0.485455       0.686411       0.541455
      3   1    1.0000      -2.321344       4.811878      -2.528656       0.720601      -0.392061      -0.571859
      4   2   -1.0000      -1.343458       4.484182      -3.088192       0.574826      -0.394874      -0.716694
      5   2   -1.0000       3.615929       3.994693      -0.030178      -0.634106       0.773246      -0.000781
ITEM: TIMESTEP
2900
ITEM: NUMBER OF ATOMS
5
ITEM: BOX BOUNDS ff ff ff
-5.00000000    5.00000000     
-5.00000000    5.00000000     
-5.00000000    5.00000000     
ITEM: ATOMS id type q x y z mux muy muz
      1   1    1.0000       0.645228       2.879430       2.787929       0.571757      -0.077622      -0.816742
      2   2   -1.0000      -1.643942       4.301873       0.142391      -0.536402       0.695211       0.478492
      3   1    1.0000      -2.272409       4.807974      -2.603382       0.764784      -0.170859      -0.621218
      4   2   -1.0000      -1.377856       4.472947      -3.005062       0.492805      -0.508530      -0.706074
      5   2   -1.0000       3.636539       3.986259      -0.027782      -0.624498       0.779650      -0.046337
ITEM: TIMESTEP
3000
ITEM: NUMBER OF ATOMS
5
ITEM: BOX BOUNDS ff ff ff
-5.00000000    5.00000000     
-5.00000000    5.00000000     
-5.00000000    5.00000000     
ITEM: ATOMS id type q x y z mux muy muz
      1   1    1.0000       0.639406       2.856546       2.765375       0.494127      -0.058268      -0.867435
      2   2   -1.0000      -1.665813       4.319452       0.156267      -0.590963       0.702291       0.396925
      3   1    1.0000      -2.264322       4.823318      -2.629019       0.833424       0.047638      -0.550577
      4   2   -1.0000      -1.374531       4.445820      -2.973031       0.518270      -0.614542      -0.594756
      5   2   -1.0000       3.652820       3.979389      -0.025498      -0.610668       0.785646      -0.099219
ITEM: TIMESTEP
3100
ITEM: NUMBER OF ATOMS
5
ITEM: BOX BOUNDS ff ff ff
-5.00000000    5.00000000     
-5.00000000    5.00000000     
-5.00000000    5.00000000     
ITEM: ATOMS id type q x y z mux muy muz
      1   1    1.0000       0.632591       2.830800       2.738348       0.417302      -0.037735      -0.907984
      2   2   -1.0000      -1.690039       4.338928       0.173343      -0.637590       0.704212       0.312353
      3   1    1.0000      -2.305782       4.861150      -2.614593       0.905422       0.164059      -0.391530
      4   2   -1.0000      -1.320336       4.394833      -2.980537       0.616477      -0.680832      -0.395505
      5   2   -1.0000       3.671126       3.971401      -0.022467      -0.594979       0.789815      -0.148974
ITEM: TIMESTEP
3200
ITEM: NUMBER OF ATOMS
5
ITEM: BOX BOUNDS ff ff ff
-5.00000000    5.00000000     
-5.00000000    5.00000000     
-5.00000000    5.00000000     
ITEM: ATOMS id type q x y z mux muy muz
      1   1    1.0000       0.622073       2.792419       2.696033       0.345859      -0.017155      -0.938130
      2   2   -1.0000      -1.725771       4.367817       0.200363      -0.674873       0.700666       0.231546
      3   1    1.0000      -2.309885       4.884178      -2.605401       0.959594       0.170987      -0.223477
      4   2   -1.0000      -1.297265       4.352063      -2.979495       0.703404      -0.690160      -0.170007
      5   2   -1.0000       3.698409       3.959167      -0.017407      -0.578328       0.792476      -0.193698
ITEM: TIMESTEP
3300
ITEM: NUMBER OF ATOMS
5
ITEM: BOX BOUNDS ff ff ff
-5.00000000    5.00000000     
-5.00000000    5.00000000     
-5.00000000    5.00000000     
ITEM: ATOMS id type q x y z mux muy muz
      1   1    1.0000       0.607794       2.741718       2.638197       0.273172       0.005538      -0.961949
      2   2   -1.0000      -1.772675       4.406001       0.237275      -0.707125       0.691190       0.149100
      3   1    1.0000      -2.268060       4.880984      -2.613445       0.993553       0.081398      -0.078910
      4   2   -1.0000      -1.313944       4.328851      -2.957707       0.756015      -0.653051       0.044334
      5   2   -1.0000       3.734445       3.942679      -0.010226      -0.558975       0.794248      -0.238152
ITEM: TIMESTEP
3400
ITEM: NUMBER OF ATOMS
5
ITEM: BOX BOUNDS ff ff ff
-5.00000000    5.00000000     
-5.00000000    5.00000000     
-5.00000000    5.00000000     
ITEM: ATOMS id type q x y z mux muy muz
      1   1    1.0000       0.595105       2.697936       2.586666       0.194001       0.032295      -0.980470
      2   2   -1.0000      -1.812962       4.439045       0.269922      -0.736009       0.674216       0.061021
      3   1    1.0000      -2.199399       4.849853      -2.643341       0.993999      -0.108798       0.011379
      4   2   -1.0000      -1.360758       4.336813      -2.915514       0.779573      -0.592155       0.204005
      5   2   -1.0000       3.765574       3.928154      -0.003640      -0.534958       0.795173      -0.285517
ITEM: TIMESTEP
3500
ITEM: NUMBER OF ATOMS
5
ITEM: BOX BOUNDS ff ff ff
-5.00000000    5.00000000     
-5.00000000    5.00000000     
-5.00000000    5.00000000     
ITEM: ATOMS id type q x y z mux muy muz
      1   1    1.0000       0.584378       2.662310       2.543146       0.108852       0.063352      -0.992037
      2   2   -1.0000      -1.845543       4.465965       0.297125      -0.760019       0.649173      -0.030761
      3   1    1.0000      -2.206021       4.852315      -2.670917       0.923267      -0.384148       0.002801
      4   2   -1.0000      -1.336195       4.315128      -2.877340       0.803199      -0.543067       0.244847
      5   2   -1.0000       3.790941       3.916024       0.002079      -0.505692       0.794899      -0.335278
ITEM: TIMESTEP
3600
ITEM: NUMBER OF ATOMS
5
ITEM: BOX BOUNDS ff ff ff
-5.00000000    5.00000000     
-5.00000000    5.00000000     
-5.00000000    5.00000000     
ITEM: ATOMS id type q x y z mux muy muz
      1   1    1.0000       0.574822       2.632135       2.504577       0.031290       0.094167      -0.995065
      2   2   -1.0000      -1.872985       4.488718       0.320894      -0.775439       0.621435      -0.111861
      3   1    1.0000      -2.240529       4.867918      -2.704087       0.776500      -0.625274      -0.077969
      4   2   -1.0000      -1.286258       4.282888      -2.834575       0.840608      -0.513690       0.171759
      5   2   -1.0000       3.812510       3.905392       0.007285      -0.475586       0.793469      -0.379771
ITEM: TIMESTEP
3700
ITEM: NUMBER OF ATOMS
5
ITEM: BOX BOUNDS ff ff ff
-5.00000000    5.00000000     
-5.00000000    5.00000000     
-5.00000000    5.00000000     
ITEM: ATOMS id type q x y z mux muy muz
      1   1    1.0000       0.563051       2.596980       2.457487      -0.040360       0.125693      -0.991248
      2   2   -1.0000      -1.904837       4.515078       0.349713      -0.783713       0.592683      -0.185795
      3   1    1.0000      -2.220912       4.852833      -2.759807       0.604631      -0.779291      -0.164705
      4   2   -1.0000      -1.287554       4.278195      -2.767075       0.876935      -0.478124       0.048815
      5   2   -1.0000       3.837813       3.892530       0.013776      -0.444248       0.791140      -0.420405
ITEM: TIMESTEP
3800
ITEM: NUMBER OF ATOMS
5
ITEM: BOX BOUNDS ff ff ff
-5.00000000    5.00000000     
-5.00000000    5.00000000     
-5.00000000    5.00000000     
ITEM: ATOMS id type q x y z mux muy muz
      1   1    1.0000       0.552384       2.567010       2.415361      -0.119346       0.164185      -0.979183
      2   2   -1.0000      -1.931896       4.537335       0.375537      -0.785362       0.557940      -0.268160
      3   1    1.0000      -2.167676       4.827146      -2.806053       0.456315      -0.863919      -0.213121
      4   2   -1.0000      -1.324858       4.286698      -2.710424       0.906180      -0.414680      -0.082930
      5   2   -1.0000       3.859607       3.881107       0.019672      -0.405585       0.787164      -0.464622
ITEM: TIMESTEP
3900
ITEM: NUMBER OF ATOMS
5
ITEM: BOX BOUNDS ff ff ff
-5.00000000    5.00000000     
-5.00000000    5.00000000     
-5.00000000    5.00000000     
ITEM: ATOMS id type q x y z mux muy muz