ITEM: TIMESTEP
0
ITEM: NUMBER OF ATOMS
5
ITEM: BOX BOUNDS ff ff ff
-5.00000000    5.00000000     
-5.00000000    5.00000000     
-5.00000000    5.00000000     
ITEM: ATOMS id type q x y z mux muy muz
      1   1    1.0000       4.820126      -4.036936       0.892331      -0.368044       0.309560      -0.876764
      2   2   -1.0000       1.264872       0.380688       1.621659      -0.113722      -0.867777      -0.483768
      3   1    1.0000      -3.837876       0.549651      -2.127777       0.994733       0.100224      -0.021458
      4   2   -1.0000       4.401780       2.620974       4.725483      -0.257699      -0.607956       0.750987
      5   2   -1.0000      -4.624688      -2.148883      -3.046224      -0.225863       0.835215      -0.501401
ITEM: TIMESTEP
100
ITEM: NUMBER OF ATOMS
5
ITEM: BOX BOUNDS ff ff ff
-5.00000000    5.00000000     
-5.00000000    5.00000000     
-5.00000000    5.00000000     
ITEM: ATOMS id type q x y z mux muy muz
      1   1    1.0000       4.788028      -3.976874       0.913797      -0.370832       0.186760      -0.909727
      2   2   -1.0000       1.288003       0.369683       1.601428      -0.109431      -0.866261      -0.487460
      3   1    1.0000      -3.806282       0.495944      -2.117932       0.970680       0.232809      -0.059840
      4   2   -1.0000       4.403907       2.646791       4.759413      -0.211900      -0.551814       0.806598
      5   2   -1.0000      -4.649442      -2.170050      -3.091234      -0.347013       0.727666      -0.591680
ITEM: TIMESTEP
200
ITEM: NUMBER OF ATOMS
5
ITEM: BOX BOUNDS ff ff ff
-5.00000000    5.00000000     
-5.00000000    5.00000000     
-5.00000000    5.00000000     
ITEM: ATOMS id type q x y z mux muy muz
      1   1    1.0000       4.755926      -3.916716       0.935357      -0.368756       0.056744      -0.927792
      2   2   -1.0000       1.310643       0.358256       1.580791      -0.103837      -0.865584      -0.489879
      3   1    1.0000      -3.774956       0.441834      -2.107949       0.929102       0.356937      -0.096778
      4   2   -1.0000       4.406412       2.672669       4.793388      -0.172910      -0.499091       0.849123
      5   2   -1.0000      -4.673811      -2.190550      -3.136114      -0.466099       0.583151      -0.665347
ITEM: TIMESTEP
300
ITEM: NUMBER OF ATOMS
5
ITEM: BOX BOUNDS ff ff ff
-5.00000000    5.00000000     
-5.00000000    5.00000000     
-5.00000000    5.00000000     
ITEM: ATOMS id type q x y z mux muy muz
      1   1    1.0000       4.723818      -3.856457       0.957013      -0.361479      -0.077237      -0.929176
      2   2   -1.0000       1.332793       0.346407       1.559739      -0.097003      -0.865750      -0.490987
      3   1    1.0000      -3.743954       0.387334      -2.097825       0.873600       0.468355      -0.132159
      4   2   -1.0000       4.409295       2.698617       4.827424      -0.140521      -0.450864       0.881462
      5   2   -1.0000      -4.697737      -2.210407      -3.180879      -0.573515       0.403495      -0.712932
ITEM: TIMESTEP
400
ITEM: NUMBER OF ATOMS
5
ITEM: BOX BOUNDS ff ff ff
-5.00000000    5.00000000     
-5.00000000    5.00000000     
-5.00000000    5.00000000     
ITEM: ATOMS id type q x y z mux muy muz
      1   1    1.0000       4.691704      -3.796096       0.978763      -0.348920      -0.211904      -0.912881
      2   2   -1.0000       1.354456       0.334140       1.538265      -0.088999      -0.866722      -0.490787
      3   1    1.0000      -3.713319       0.332468      -2.087534       0.808310       0.564684      -0.166636
      4   2   -1.0000       4.412553       2.724639       4.861534      -0.114243      -0.407541       0.906013
      5   2   -1.0000      -4.721181      -2.229657      -3.225556      -0.659216       0.194868      -0.726265
ITEM: TIMESTEP
500
ITEM: NUMBER OF ATOMS
5
ITEM: BOX BOUNDS ff ff ff
-5.00000000    5.00000000     
-5.00000000    5.00000000     
-5.00000000    5.00000000     
ITEM: ATOMS id type q x y z mux muy muz
      1   1    1.0000       4.659590      -3.735640       1.000600      -0.331214      -0.344023      -0.878604
      2   2   -1.0000       1.375637       0.321459       1.516373      -0.079898      -0.868439      -0.489317
      3   1    1.0000      -3.683077       0.277260      -2.077040       0.736985       0.645183      -0.201476
      4   2   -1.0000       4.416182       2.750734       4.895726      -0.093482      -0.369138       0.924661
      5   2   -1.0000      -4.744118      -2.248319      -3.270186      -0.713828      -0.032347      -0.699574
ITEM: TIMESTEP
600
ITEM: NUMBER OF ATOMS
5
ITEM: BOX BOUNDS ff ff ff
-5.00000000    5.00000000     
-5.00000000    5.00000000     
-5.00000000    5.00000000     
ITEM: ATOMS id type q x y z mux muy muz
      1   1    1.0000       4.627488      -3.675102       1.022514      -0.308678      -0.470482      -0.826659
      2   2   -1.0000       1.396336       0.308371       1.494067      -0.069764      -0.870814      -0.486638
      3   1    1.0000      -3.653241       0.221718      -2.066307       0.662384       0.710252      -0.238307
      4   2   -1.0000       4.420173       2.776896       4.930001      -0.077638      -0.335461       0.938849
      5   2   -1.0000      -4.766541      -2.266389      -3.314803      -0.729853      -0.264276      -0.630455
ITEM: TIMESTEP
700
ITEM: NUMBER OF ATOMS
5
ITEM: BOX BOUNDS ff ff ff
-5.00000000    5.00000000     
-5.00000000    5.00000000     
-5.00000000    5.00000000     
ITEM: ATOMS id type q x y z mux muy muz
      1   1    1.0000       4.595413      -3.614503       1.044491      -0.281772      -0.588393      -0.757891
      2   2   -1.0000       1.416554       0.294885       1.471361      -0.058656      -0.873747      -0.482830
      3   1    1.0000      -3.623814       0.165821      -2.055308       0.586003       0.760834      -0.278805
      4   2   -1.0000       4.424515       2.803115       4.964355      -0.066138      -0.306197       0.949668
      5   2   -1.0000      -4.788453      -2.283824      -3.359426      -0.702812      -0.484877      -0.520529
ITEM: TIMESTEP
800
ITEM: NUMBER OF ATOMS
5
ITEM: BOX BOUNDS ff ff ff
-5.00000000    5.00000000     
-5.00000000    5.00000000     
-5.00000000    5.00000000     
ITEM: ATOMS id type q x y z mux muy muz
      1   1    1.0000       4.563381      -3.553865       1.066517      -0.251056      -0.695185      -0.673564
      2   2   -1.0000       1.436293       0.281009       1.448268      -0.046624      -0.877129      -0.477986
      3   1    1.0000      -3.594801       0.109518      -2.044047       0.508130       0.797872      -0.324351
      4   2   -1.0000       4.429197       2.829380       4.998782      -0.058452      -0.280971       0.957935
      5   2   -1.0000      -4.809856      -2.300549      -3.404047      -0.632089      -0.677778      -0.375606
ITEM: TIMESTEP
900
ITEM: NUMBER OF ATOMS
5
ITEM: BOX BOUNDS ff ff ff
-5.00000000    5.00000000     
-5.00000000    5.00000000     
-5.00000000    5.00000000     
ITEM: ATOMS id type q x y z mux muy muz
      1   1    1.0000       4.531407      -3.493202       1.088576      -0.217136      -0.788663      -0.575206
      2   2   -1.0000       1.455555       0.266750       1.424804      -0.033690      -0.880844      -0.472207
      3   1    1.0000      -3.566213       0.052731      -2.032562       0.428146       0.821908      -0.375711
      4   2   -1.0000       4.434209       2.855678       4.966933      -0.054109      -0.259378       0.964259
      5   2   -1.0000      -4.830743      -2.316463      -3.448621      -0.521274      -0.828347      -0.205220
ITEM: TIMESTEP
1000
ITEM: NUMBER OF ATOMS
5
ITEM: BOX BOUNDS ff ff ff
-5.00000000    5.00000000     
-5.00000000    5.00000000     
-5.00000000    5.00000000     
ITEM: ATOMS id type q x y z mux muy muz
      1   1    1.0000       4.499470      -3.432464       1.110678      -0.180609      -0.866990      -0.464445
      2   2   -1.0000       1.474359       0.252092       1.400958      -0.019824      -0.884768      -0.465611
      3   1    1.0000      -3.538044      -0.004688      -2.020919       0.344981       0.832884      -0.432772
      4   2   -1.0000       4.439548       2.882029       4.933001      -0.052738      -0.241030       0.969084
      5   2   -1.0000      -4.851119      -2.331476      -3.493114      -0.377849      -0.925617      -0.021553
ITEM: TIMESTEP
1100
ITEM: NUMBER OF ATOMS
5
ITEM: BOX BOUNDS ff ff ff
-5.00000000    5.00000000     
-5.00000000    5.00000000     
-5.00000000    5.00000000     
ITEM: ATOMS id type q x y z mux muy muz
      1   1    1.0000       4.467572      -3.371640       1.132815      -0.142019      -0.928591      -0.342856
      2   2   -1.0000       1.492706       0.237029       1.376739      -0.004973      -0.888777      -0.458312
      3   1    1.0000      -3.510327      -0.062829      -2.009231       0.257606       0.830189      -0.494394
      4   2   -1.0000       4.445214       2.908434       4.899423      -0.054027      -0.225547       0.972733
      5   2   -1.0000      -4.870951      -2.345500      -3.537416      -0.212250      -0.963679       0.162087
ITEM: TIMESTEP
1200
ITEM: NUMBER OF ATOMS
5
ITEM: BOX BOUNDS ff ff ff
-5.00000000    5.00000000     
-5.00000000    5.00000000     
-5.00000000    5.00000000     
ITEM: ATOMS id type q x y z mux muy muz
      1   1    1.0000       4.435708      -3.310712       1.154983      -0.101835      -0.971978      -0.211867
      2   2   -1.0000       1.510605       0.221551       1.352154       0.010930      -0.892751      -0.450418
      3   1    1.0000      -3.483101      -0.121754      -1.997637       0.165481       0.812894      -0.558408
      4   2   -1.0000       4.451204       2.934896       4.866188      -0.057714      -0.212564       0.975441
      5   2   -1.0000      -4.890203      -2.358486      -3.581401      -0.036470      -0.942244       0.332935
ITEM: TIMESTEP
1300
ITEM: NUMBER OF ATOMS
5
ITEM: BOX BOUNDS ff ff ff
-5.00000000    5.00000000     
-5.00000000    5.00000000     
-5.00000000    5.00000000     
ITEM: ATOMS id type q x y z mux muy muz
      1   1    1.0000       4.403866      -3.249647       1.177182      -0.060460      -0.995514      -0.072779
      2   2   -1.0000       1.528070       0.205645       1.327205       0.027950      -0.896565      -0.442029
      3   1    1.0000      -3.456404      -0.181485      -1.986281       0.068860       0.780136      -0.621809
      4   2   -1.0000       4.457517       2.961420       4.833282      -0.063585      -0.201739       0.977373
      5   2   -1.0000      -4.908835      -2.370440      -3.624940       0.137514      -0.866275       0.480268
ITEM: TIMESTEP
1400
ITEM: NUMBER OF ATOMS
5
ITEM: BOX BOUNDS ff ff ff
-5.00000000    5.00000000     
-5.00000000    5.00000000     
-5.00000000    5.00000000     
ITEM: ATOMS id type q x y z mux muy muz
      1   1    1.0000       4.372028      -3.188400       1.199412      -0.018279      -0.997159       0.073075
      2   2   -1.0000       1.545117       0.189298       1.301892       0.046149      -0.900091      -0.433251
      3   1    1.0000      -3.430263      -0.241990      -1.975293      -0.031086       0.731528      -0.681102
      4   2   -1.0000       4.464151       2.988015       4.800684      -0.071471      -0.192761       0.978639
      5   2   -1.0000      -4.926818      -2.381429      -3.667924       0.299152      -0.744847       0.596415
ITEM: TIMESTEP
1500
ITEM: NUMBER OF ATOMS
5
ITEM: BOX BOUNDS ff ff ff
-5.00000000    5.00000000     
-5.00000000    5.00000000     
-5.00000000    5.00000000     
ITEM: ATOMS id type q x y z mux muy muz
      1   1    1.0000       4.340169      -3.126922       1.221678       0.024245      -0.974290       0.223988
      2   2   -1.0000       1.561768       0.172491       1.276216       0.065556      -0.903190      -0.424205
      3   1    1.0000      -3.404684      -0.303188      -1.964768      -0.132336       0.667499      -0.732756
      4   2   -1.0000       4.471106       3.014689       4.768371      -0.081240      -0.185351       0.979308
      5   2   -1.0000      -4.944145      -2.391575      -3.710279       0.440300      -0.589555       0.677171
ITEM: TIMESTEP
1600
ITEM: NUMBER OF ATOMS
5
ITEM: BOX BOUNDS ff ff ff
-5.00000000    5.00000000     
-5.00000000    5.00000000     
-5.00000000    5.00000000     
ITEM: ATOMS id type q x y z mux muy muz
      1   1    1.0000       4.308268      -3.065166       1.243980       0.066429      -0.923679       0.377365
      2   2   -1.0000       1.578046       0.155206       1.250182       0.086142      -0.905711      -0.415051
      3   1    1.0000      -3.379651      -0.364955      -1.954757      -0.232255       0.589482      -0.773672
      4   2   -1.0000       4.478381       3.041444       4.736324      -0.092776      -0.179263       0.979417
      5   2   -1.0000      -4.960831      -2.401035      -3.751976       0.555684      -0.412873       0.721631
ITEM: TIMESTEP
1700
ITEM: NUMBER OF ATOMS
5
ITEM: BOX BOUNDS ff ff ff
-5.00000000    5.00000000     
-5.00000000    5.00000000     
-5.00000000    5.00000000     
ITEM: ATOMS id type q x y z mux muy muz
      1   1    1.0000       4.276303      -3.003089       1.266316       0.107215      -0.841767       0.529087
      2   2   -1.0000       1.593976       0.137427       1.223798       0.107784      -0.907494      -0.406001
      3   1    1.0000      -3.355125      -0.427144      -1.945255      -0.327937       0.499911      -0.801590
      4   2   -1.0000       4.485973       3.068278       4.704526      -0.105955      -0.174277       0.978980
      5   2   -1.0000      -4.976914      -2.409978      -3.793034       0.642884      -0.226732       0.731637
ITEM: TIMESTEP
1800
ITEM: NUMBER OF ATOMS
5
ITEM: BOX BOUNDS ff ff ff
-5.00000000    5.00000000     
-5.00000000    5.00000000     
-5.00000000    5.00000000     
ITEM: ATOMS id type q x y z mux muy muz
      1   1    1.0000       4.244256      -2.940657       1.288679       0.145025      -0.725348       0.672932
      2   2   -1.0000       1.609583       0.119137       1.197083       0.130237      -0.908384      -0.397337
      3   1    1.0000      -3.331052      -0.489605      -1.936216      -0.416593       0.402031      -0.815366
      4   2   -1.0000       4.493879       3.095179       4.672970      -0.120624      -0.170188       0.978001
      5   2   -1.0000      -4.992452      -2.418561      -3.833507       0.701961      -0.041491       0.711006
ITEM: TIMESTEP
1900
ITEM: NUMBER OF ATOMS
5
ITEM: BOX BOUNDS ff ff ff
-5.00000000    5.00000000     
-5.00000000    5.00000000     
-5.00000000    5.00000000     
ITEM: ATOMS id type q x y z mux muy muz
      1   1    1.0000       4.212116      -2.877846       1.311058       0.177703      -0.572678       0.800289
      2   2   -1.0000       1.624891       0.100322       1.170059       0.153109      -0.908251      -0.389408
      3   1    1.0000      -3.307372      -0.552206      -1.927559      -0.495924       0.299534      -0.815070
      4   2   -1.0000       4.502090       3.122126       4.641653      -0.136586      -0.166798       0.976485
      5   2   -1.0000      -4.992385      -2.426903      -3.873477       0.734871       0.134691       0.664698
ITEM: TIMESTEP
2000
ITEM: NUMBER OF ATOMS
5
ITEM: BOX BOUNDS ff ff ff
-5.00000000    5.00000000     
-5.00000000    5.00000000     
-5.00000000    5.00000000     
ITEM: ATOMS id type q x y z mux muy muz
      1   1    1.0000       4.179887      -2.814668       1.333430       0.202607      -0.384850       0.900467
      2   2   -1.0000       1.639921       0.080975       1.142770       0.175873      -0.907012      -0.382620
      3   1    1.0000      -3.284044      -0.614821      -1.919198      -0.564391       0.196104      -0.801877
      4   2   -1.0000       4.510592       3.149076       4.610593      -0.153599      -0.163914       0.974443
      5   2   -1.0000      -4.976962      -2.435069      -3.913008       0.744819       0.296026       0.598008
ITEM: TIMESTEP
2100
ITEM: NUMBER OF ATOMS
5
ITEM: BOX BOUNDS ff ff ff
-5.00000000    5.00000000     
-5.00000000    5.00000000     
-5.00000000    5.00000000     
ITEM: ATOMS id type q x y z mux muy muz
      1   1    1.0000       4.147576      -2.751135       1.355772       0.216906      -0.167059       0.961792
      2   2   -1.0000       1.654696       0.061087       1.115258       0.197900      -0.904652      -0.377412
      3   1    1.0000      -3.261040      -0.677366      -1.911050      -0.621337       0.094974      -0.777766
      4   2   -1.0000       4.519369       3.175984       4.579808      -0.171393      -0.161345       0.971901
      5   2   -1.0000      -4.961239      -2.443076      -3.952161       0.735591       0.439011       0.515921
ITEM: TIMESTEP
2200
ITEM: NUMBER OF ATOMS
5
ITEM: BOX BOUNDS ff ff ff
-5.00000000    5.00000000     
-5.00000000    5.00000000     
-5.00000000    5.00000000     
ITEM: ATOMS id type q x y z mux muy muz
      1   1    1.0000       4.115178      -2.687237       1.378076       0.218028       0.070660       0.973381
      2   2   -1.0000       1.669249       0.040639       1.087557       0.218497      -0.901232      -0.374218
      3   1    1.0000      -3.238343      -0.739822      -1.903044      -0.666913      -0.001362      -0.745134
      4   2   -1.0000       4.528406       3.202809       4.549306      -0.189688      -0.158908       0.968900
      5   2   -1.0000      -4.945262      -2.450895      -3.990992       0.710909       0.562087       0.422689
ITEM: TIMESTEP
2300
ITEM: NUMBER OF ATOMS
5
ITEM: BOX BOUNDS ff ff ff
-5.00000000    5.00000000     
-5.00000000    5.00000000     
-5.00000000    5.00000000     
ITEM: ATOMS id type q x y z mux muy muz
      1   1    1.0000       4.082690      -2.622966       1.400335       0.204200       0.313678       0.927313
      2   2   -1.0000       1.683612       0.019608       1.059699       0.236963      -0.896877      -0.373444
      3   1    1.0000      -3.215961      -0.802198      -1.895136      -0.701884      -0.091278      -0.706419
      4   2   -1.0000       4.537683       3.229508       4.519098      -0.208225      -0.156440       0.965489
      5   2   -1.0000      -4.929062      -2.458459      -4.029525       0.673977       0.665064       0.321627
ITEM: TIMESTEP
2400
ITEM: NUMBER OF ATOMS
5
ITEM: BOX BOUNDS ff ff ff
-5.00000000    5.00000000     
-5.00000000    5.00000000     
-5.00000000    5.00000000     
ITEM: ATOMS id type q x y z mux muy muz
      1   1    1.0000       4.050110      -2.558314       1.422548       0.174921       0.544105       0.820581
      2   2   -1.0000       1.697821      -0.002029       1.031710       0.252622      -0.891752      -0.375446
      3   1    1.0000      -3.193926      -0.864526      -1.887318      -0.727379      -0.173966      -0.663819
      4   2   -1.0000       4.547181       3.256038       4.489193      -0.226782      -0.153808       0.961724
      5   2   -1.0000      -4.912645      -2.465675      -4.067750       0.627259       0.748505       0.215142
ITEM: TIMESTEP
2500
ITEM: NUMBER OF ATOMS
5
ITEM: BOX BOUNDS ff ff ff
-5.00000000    5.00000000     
-5.00000000    5.00000000     
-5.00000000    5.00000000     
ITEM: ATOMS id type q x y z mux muy muz
      1   1    1.0000       4.017441      -2.493278       1.444724       0.131231       0.742982       0.656320
      2   2   -1.0000       1.711908      -0.024300       1.003613       0.264853      -0.886033      -0.380525
      3   1    1.0000      -3.172289      -0.926852      -1.879614      -0.744659      -0.249256      -0.619156
      4   2   -1.0000       4.556878       3.282356       4.459600      -0.245188      -0.150918       0.957657
      5   2   -1.0000      -4.896000      -2.472433      -4.105619       0.572453       0.813197       0.104925
ITEM: TIMESTEP
2600
ITEM: NUMBER OF ATOMS
5
ITEM: BOX BOUNDS ff ff ff
-5.00000000    5.00000000     
-5.00000000    5.00000000     
-5.00000000    5.00000000     
ITEM: ATOMS id type q x y z mux muy muz
      1   1    1.0000       3.984686      -2.427850       1.466880       0.075720       0.892836       0.443971
      2   2   -1.0000       1.725906      -0.047235       0.975418       0.273093      -0.879863      -0.388925
      3   1    1.0000      -3.151119      -0.989231      -1.872087      -0.754952      -0.317395      -0.573853
      4   2   -1.0000       4.566751       3.308430       4.430326      -0.263322      -0.147719       0.953331
      5   2   -1.0000      -4.879095      -2.478619      -4.143051       0.510615       0.859775      -0.007750
ITEM: TIMESTEP
2700
ITEM: NUMBER OF ATOMS
5
ITEM: BOX BOUNDS ff ff ff
-5.00000000    5.00000000     
-5.00000000    5.00000000     
-5.00000000    5.00000000     
ITEM: ATOMS id type q x y z mux muy muz
      1   1    1.0000       3.951849      -2.362028       1.489041       0.012263       0.980048       0.198384
      2   2   -1.0000       1.739844      -0.070865       0.947126       0.276834      -0.873319      -0.400845
      3   1    1.0000      -3.130497      -1.051716      -1.864828      -0.759365      -0.378844      -0.529001
      4   2   -1.0000       4.576780       3.334230       4.401376      -0.281110      -0.144206       0.948779
      5   2   -1.0000      -4.861886      -2.484127      -4.179935       0.442371       0.888532      -0.121731
ITEM: TIMESTEP
2800
ITEM: NUMBER OF ATOMS
5
ITEM: BOX BOUNDS ff ff ff
-5.00000000    5.00000000     
-5.00000000    5.00000000     
-5.00000000    5.00000000     
ITEM: ATOMS id type q x y z mux muy muz
      1   1    1.0000       3.918937      -2.295807       1.511243      -0.054439       0.996596      -0.061914
      2   2   -1.0000       1.753747      -0.095221       0.918726       0.275622      -0.866376      -0.416444
      3   1    1.0000      -3.110511      -1.114353      -1.857959      -0.758861      -0.434120      -0.485458
      4   2   -1.0000       4.586943       3.359737       4.372755      -0.298515      -0.140420       0.944019
      5   2   -1.0000      -4.844314      -2.488862      -4.216134       0.368152       0.899391      -0.235713
ITEM: TIMESTEP
2900
ITEM: NUMBER OF ATOMS
5
ITEM: BOX BOUNDS ff ff ff
-5.00000000    5.00000000     
-5.00000000    5.00000000     
-5.00000000    5.00000000     
ITEM: ATOMS id type q x y z mux muy muz
      1   1    1.0000       3.885962      -2.229186       1.533529      -0.119430       0.940909      -0.316902
      2   2   -1.0000       1.767633      -0.120336       0.890196       0.269051      -0.858864      -0.435848
      3   1    1.0000      -3.091254      -1.177177      -1.851622      -0.754278      -0.483706      -0.443951
      4   2   -1.0000       4.597222       3.384942       4.344466      -0.315532      -0.136439       0.939055
      5   2   -1.0000      -4.826317      -2.492748      -4.251491       0.288431       0.892005      -0.348045
ITEM: TIMESTEP
3000
ITEM: NUMBER OF ATOMS
5
ITEM: BOX BOUNDS ff ff ff
-5.00000000    5.00000000     
-5.00000000    5.00000000     
-5.00000000    5.00000000     
ITEM: ATOMS id type q x y z mux muy muz
      1   1    1.0000       3.852935      -2.162166       1.555950      -0.178059       0.817786      -0.547285
      2   2   -1.0000       1.781518      -0.146242       0.861504       0.256758      -0.850446      -0.459148
      3   1    1.0000      -3.072817      -1.240205      -1.845978      -0.746367      -0.527998      -0.405160
      4   2   -1.0000       4.607601       3.409842       4.316512      -0.332181      -0.132376       0.933880
      5   2   -1.0000      -4.807825      -2.495734      -4.285836       0.203925       0.865977      -0.456616
ITEM: TIMESTEP
3100
ITEM: NUMBER OF ATOMS
5
ITEM: BOX BOUNDS ff ff ff
-5.00000000    5.00000000     
-5.00000000    5.00000000     
-5.00000000    5.00000000     
ITEM: ATOMS id type q x y z mux muy muz
      1   1    1.0000       3.819869      -2.094747       1.578559      -0.226464       0.637516      -0.736401
      2   2   -1.0000       1.795408      -0.172973       0.832608       0.238441      -0.840579      -0.486388
      3   1    1.0000      -3.055289      -1.303434      -1.841198      -0.735831      -0.567298      -0.369765
      4   2   -1.0000       4.618067       3.434442       4.288900      -0.348496      -0.128366       0.928479
      5   2   -1.0000      -4.788773      -2.497795      -4.318988       0.115752       0.821137      -0.558870
ITEM: TIMESTEP
3200
ITEM: NUMBER OF ATOMS
5
ITEM: BOX BOUNDS ff ff ff
-5.00000000    5.00000000     
-5.00000000    5.00000000     
-5.00000000    5.00000000     
ITEM: ATOMS id type q x y z mux muy muz
      1   1    1.0000       3.786782      -2.026929       1.601414      -0.261907       0.414459      -0.871567
      2   2   -1.0000       1.809308      -0.200562       0.803460       0.213870      -0.828494      -0.517549
      3   1    1.0000      -3.038750      -1.366835      -1.837459      -0.723359      -0.601818      -0.338478
      4   2   -1.0000       4.628609       3.458752       4.261635      -0.364525      -0.124555       0.922826
      5   2   -1.0000      -4.769098      -2.498931      -4.350764       0.025509       0.757848      -0.651932
ITEM: TIMESTEP
3300
ITEM: NUMBER OF ATOMS
5
ITEM: BOX BOUNDS ff ff ff
-5.00000000    5.00000000     
-5.00000000    5.00000000     
-5.00000000    5.00000000     
ITEM: ATOMS id type q x y z mux muy muz
      1   1    1.0000       3.753693      -1.958710       1.624569      -0.282944       0.165393      -0.944769
      2   2   -1.0000       1.823216      -0.229048       0.774013       0.182928      -0.813186      -0.552509
      3   1    1.0000      -3.023271      -1.430355      -1.834937      -0.709641      -0.631701      -0.312031
      4   2   -1.0000       4.639216       3.482783       4.234728      -0.380321      -0.121089       0.916893
      5   2   -1.0000      -4.748747      -2.499175      -4.380981      -0.064734       0.677294      -0.732859
ITEM: TIMESTEP
3400
ITEM: NUMBER OF ATOMS
5
ITEM: BOX BOUNDS ff ff ff
-5.00000000    5.00000000     
-5.00000000    5.00000000     
-5.00000000    5.00000000     
ITEM: ATOMS id type q x y z mux muy muz
      1   1    1.0000       3.720622      -1.890082       1.648071      -0.289454      -0.092073      -0.952753
      2   2   -1.0000       1.837126      -0.258475       0.744221       0.145665      -0.793416      -0.590993
      3   1    1.0000      -3.008910      -1.493911      -1.833797      -0.695364      -0.657037      -0.291155
      4   2   -1.0000       4.649883       3.506547       4.208193      -0.395932      -0.118103       0.910654
      5   2   -1.0000      -4.727682      -2.498584      -4.409466      -0.152549       0.581664      -0.798996
ITEM: TIMESTEP
3500
ITEM: NUMBER OF ATOMS
5
ITEM: BOX BOUNDS ff ff ff
-5.00000000    5.00000000     
-5.00000000    5.00000000     
-5.00000000    5.00000000     
ITEM: ATOMS id type q x y z mux muy muz
      1   1    1.0000       3.687595      -1.821030       1.671952      -0.282557      -0.340825      -0.896660
      2   2   -1.0000       1.851029      -0.288896       0.714052       0.102371      -0.767760      -0.632506
      3   1    1.0000      -2.995715      -1.557395      -1.834193      -0.681192      -0.677871      -0.276530
      4   2   -1.0000       4.660599       3.530052       4.182048      -0.411397      -0.115706       0.904082
      5   2   -1.0000      -4.705876      -2.497237      -4.436057      -0.235366       0.474207      -0.848369
ITEM: TIMESTEP
3600
ITEM: NUMBER OF ATOMS
5
ITEM: BOX BOUNDS ff ff ff
-5.00000000    5.00000000     
-5.00000000    5.00000000     
-5.00000000    5.00000000     
ITEM: ATOMS id type q x y z mux muy muz
      1   1    1.0000       3.654645      -1.751524       1.696220      -0.264467      -0.565209      -0.781406
      2   2   -1.0000       1.864911      -0.320374       0.683499       0.053667      -0.734699      -0.676267
      3   1    1.0000      -2.983715      -1.620676      -1.836256      -0.667727      -0.694208      -0.268731
      4   2   -1.0000       4.671358       3.553302       4.156314      -0.426734      -0.113973       0.897167
      5   2   -1.0000      -4.683321      -2.495235      -4.460612      -0.310754       0.359087      -0.880050
ITEM: TIMESTEP
3700
ITEM: NUMBER OF ATOMS
5
ITEM: BOX BOUNDS ff ff ff
-5.00000000    5.00000000     
-5.00000000    5.00000000     
-5.00000000    5.00000000     
ITEM: ATOMS id type q x y z mux muy muz
      1   1    1.0000       3.621815      -1.681523       1.720845      -0.238326      -0.751651      -0.614997
      2   2   -1.0000       1.878747      -0.352983       0.652593       0.000610      -0.692782      -0.721147
      3   1    1.0000      -2.972928      -1.683605      -1.840097      -0.655465      -0.706013      -0.268161
      4   2   -1.0000       4.682148       3.576296       4.131015      -0.441935      -0.112933       0.889910
      5   2   -1.0000      -4.660024      -2.492691      -4.483009      -0.376727       0.241065      -0.894408
ITEM: TIMESTEP
3800
ITEM: NUMBER OF ATOMS
5
ITEM: BOX BOUNDS ff ff ff
-5.00000000    5.00000000     
-5.00000000    5.00000000     
-5.00000000    5.00000000     
ITEM: ATOMS id type q x y z mux muy muz
      1   1    1.0000       3.589157      -1.610967       1.745741      -0.208026      -0.889010      -0.407906
      2   2   -1.0000       1.892503      -0.386809       0.621414      -0.055238      -0.640866      -0.765663
      3   1    1.0000      -2.963358      -1.746028      -1.845802      -0.644757      -0.713210      -0.274991
      4   2   -1.0000       4.692958       3.599025       4.106175      -0.456953      -0.112562       0.882340
      5   2   -1.0000      -4.636005      -2.489729      -4.503152      -0.432005       0.125036      -0.893162
ITEM: TIMESTEP
3900
ITEM: NUMBER OF ATOMS
5
ITEM: BOX BOUNDS ff ff ff
-5.00000000    5.00000000     
-5.00000000    5.00000000     
-5.00000000    5.00000000     
ITEM: ATOMS id type q x y z mux muy muz