ITEM: TIMESTEP
0
ITEM: NUMBER OF ATOMS
5
ITEM: BOX BOUNDS ff ff ff
-5.00000000    5.00000000     
-5.00000000    5.00000000     
-5.00000000    5.00000000     
ITEM: ATOMS id type q x y z mux muy muz
      1   1    1.0000      -4.658609      -1.803940       3.104164      -0.857114       0.033653       0.514027
      2   2   -1.0000       1.897106       2.248512       1.981626      -0.441931      -0.889584      -0.115491
      3   1    1.0000      -1.890332      -4.003135      -2.275714       0.949711      -0.249128       0.189693
      4   2   -1.0000       3.318143       4.804954      -0.061974       0.817959       0.265633      -0.510276
      5   2   -1.0000      -4.902950      -3.599366      -1.778656       0.833701       0.527131      -0.164545
ITEM: TIMESTEP
100
ITEM: NUMBER OF ATOMS
5
ITEM: BOX BOUNDS ff ff ff
-5.00000000    5.00000000     
-5.00000000    5.00000000     
-5.00000000    5.00000000     
ITEM: ATOMS id type q x y z mux muy muz
      1   1    1.0000      -4.695044      -1.850013       3.087558      -0.849336       0.020648       0.527449
      2   2   -1.0000       1.905927       2.228168       2.027884      -0.461730      -0.881084      -0.102457
      3   1    1.0000      -1.896662      -3.980462      -2.314333       0.999932      -0.011537      -0.001864
      4   2   -1.0000       3.347292       4.830135      -0.106919       0.817291       0.283491      -0.501665
      5   2   -1.0000      -4.898155      -3.580803      -1.724744       0.828735       0.541798      -0.140190
ITEM: TIMESTEP
200
ITEM: NUMBER OF ATOMS
5
ITEM: BOX BOUNDS ff ff ff
-5.00000000    5.00000000     
-5.00000000    5.00000000     
-5.00000000    5.00000000     
ITEM: ATOMS id type q x y z mux muy muz
      1   1    1.0000      -4.730990      -1.895529       3.070908      -0.842968       0.009251       0.537885
      2   2   -1.0000       1.914154       2.206856       2.074675      -0.479711      -0.872027      -0.097194
      3   1    1.0000      -1.903063      -3.957884      -2.352474       0.953931       0.228576      -0.194340
      4   2   -1.0000       3.376444       4.856024      -0.152424       0.819490       0.296006      -0.490731
      5   2   -1.0000      -4.893186      -3.562442      -1.671239       0.822458       0.556002      -0.120103
ITEM: TIMESTEP
300
ITEM: NUMBER OF ATOMS
5
ITEM: BOX BOUNDS ff ff ff
-5.00000000    5.00000000     
-5.00000000    5.00000000     
-5.00000000    5.00000000     
ITEM: ATOMS id type q x y z mux muy muz
      1   1    1.0000      -4.766466      -1.940528       3.054198      -0.838047      -0.000828       0.545597
      2   2   -1.0000       1.921837       2.184666       2.121954      -0.496099      -0.862643      -0.098658
      3   1    1.0000      -1.909495      -3.935418      -2.390143       0.814760       0.447492      -0.368669
      4   2   -1.0000       3.405570       4.882538      -0.198451       0.824201       0.304035      -0.477762
      5   2   -1.0000      -4.888088      -3.544234      -1.618112       0.815506       0.569415      -0.103518
ITEM: TIMESTEP
400
ITEM: NUMBER OF ATOMS
5
ITEM: BOX BOUNDS ff ff ff
-5.00000000    5.00000000     
-5.00000000    5.00000000     
-5.00000000    5.00000000     
ITEM: ATOMS id type q x y z mux muy muz
      1   1    1.0000      -4.801494      -1.985052       3.037414      -0.834541      -0.009854       0.550858
      2   2   -1.0000       1.929025       2.161683       2.169682      -0.511033      -0.853015      -0.105882
      3   1    1.0000      -1.915944      -3.913094      -2.427348       0.595172       0.623244      -0.507284
      4   2   -1.0000       3.434649       4.909603      -0.244966       0.831021       0.308305      -0.462983
      5   2   -1.0000      -4.882878      -3.526115      -1.565337       0.808194       0.582071      -0.089535
ITEM: TIMESTEP
500
ITEM: NUMBER OF ATOMS
5
ITEM: BOX BOUNDS ff ff ff
-5.00000000    5.00000000     
-5.00000000    5.00000000     
-5.00000000    5.00000000     
ITEM: ATOMS id type q x y z mux muy muz
      1   1    1.0000      -4.836092      -2.029139       3.020545      -0.832363      -0.018054       0.553937
      2   2   -1.0000       1.935761       2.137986       2.217821      -0.524595      -0.843135      -0.117999
      3   1    1.0000      -1.922431      -3.890956      -2.464098       0.316391       0.738001      -0.596030
      4   2   -1.0000       3.463662       4.937151      -0.291935       0.839538       0.309426      -0.446577
      5   2   -1.0000      -4.877542      -3.508017      -1.512887       0.800523       0.594314      -0.077159
ITEM: TIMESTEP
600
ITEM: NUMBER OF ATOMS
5
ITEM: BOX BOUNDS ff ff ff
-5.00000000    5.00000000     
-5.00000000    5.00000000     
-5.00000000    5.00000000     
ITEM: ATOMS id type q x y z mux muy muz
      1   1    1.0000      -4.870281      -2.072825       3.003579      -0.831398      -0.025610       0.555087
      2   2   -1.0000       1.942086       2.113645       2.266340      -0.536830      -0.832941      -0.134246
      3   1    1.0000      -1.929003      -3.869052      -2.500403       0.005948       0.780025      -0.625720
      4   2   -1.0000       3.492592       4.965125      -0.339327       0.849358       0.307907      -0.428700
      5   2   -1.0000      -4.872036      -3.489870      -1.460742       0.792218       0.606725      -0.065378
ITEM: TIMESTEP
700
ITEM: NUMBER OF ATOMS
5
ITEM: BOX BOUNDS ff ff ff
-5.00000000    5.00000000     
-5.00000000    5.00000000     
-5.00000000    5.00000000     
ITEM: ATOMS id type q x y z mux muy muz
      1   1    1.0000      -4.904081      -2.116141       2.986504      -0.831522      -0.032660       0.554532
      2   2   -1.0000       1.948037       2.088727       2.315210      -0.547761      -0.822344      -0.153973
      3   1    1.0000      -1.935736      -3.847428      -2.536269      -0.305202       0.744984      -0.593170
      4   2   -1.0000       3.521427       4.993474      -0.387113       0.860118       0.304164      -0.409489
      5   2   -1.0000      -4.866289      -3.471607      -1.408885       0.782783       0.620013      -0.053233
ITEM: TIMESTEP
800
ITEM: NUMBER OF ATOMS
5
ITEM: BOX BOUNDS ff ff ff
-5.00000000    5.00000000     
-5.00000000    5.00000000     
-5.00000000    5.00000000     
ITEM: ATOMS id type q x y z mux muy muz
      1   1    1.0000      -4.937510      -2.159117       2.969312      -0.832612      -0.039305       0.552461
      2   2   -1.0000       1.953648       2.063289       2.364407      -0.557401      -0.811235      -0.176639
      3   1    1.0000      -1.942727      -3.826123      -2.571700      -0.585960       0.636454      -0.501574
      4   2   -1.0000       3.550157       4.978171      -0.435266       0.871496       0.298544      -0.389057
      5   2   -1.0000      -4.860210      -3.453176      -1.357308       0.771564       0.634900      -0.039892
ITEM: TIMESTEP
900
ITEM: NUMBER OF ATOMS
5
ITEM: BOX BOUNDS ff ff ff
-5.00000000    5.00000000     
-5.00000000    5.00000000     
-5.00000000    5.00000000     
ITEM: ATOMS id type q x y z mux muy muz
      1   1    1.0000      -4.970637      -2.201841       2.951965      -0.834563      -0.045612       0.549021
      2   2   -1.0000       1.958954       2.037342       2.413999      -0.565736      -0.799490      -0.201889
      3   1    1.0000      -1.950093      -3.805132      -2.606747      -0.808414       0.465558      -0.360169
      4   2   -1.0000       3.578821       4.950483      -0.483844       0.883235       0.291341      -0.367447
      5   2   -1.0000      -4.853688      -3.434510      -1.305926       0.757810       0.652007      -0.024714
ITEM: TIMESTEP
1000
ITEM: NUMBER OF ATOMS
5
ITEM: BOX BOUNDS ff ff ff
-5.00000000    5.00000000     
-5.00000000    5.00000000     
-5.00000000    5.00000000     
ITEM: ATOMS id type q x y z mux muy muz
      1   1    1.0000      -4.996518      -2.244342       2.934451      -0.837294      -0.051629       0.544310
      2   2   -1.0000       1.963978       2.010928       2.463989      -0.572740      -0.786969      -0.229453
      3   1    1.0000      -1.957944      -3.784461      -2.641411      -0.950820       0.249740      -0.183222
      4   2   -1.0000       3.607422       4.923426      -0.532847       0.895110       0.282802      -0.344675
      5   2   -1.0000      -4.846617      -3.415587      -1.254735       0.740740       0.671752      -0.007301
ITEM: TIMESTEP
1100
ITEM: NUMBER OF ATOMS
5
ITEM: BOX BOUNDS ff ff ff
-5.00000000    5.00000000     
-5.00000000    5.00000000     
-5.00000000    5.00000000     
ITEM: ATOMS id type q x y z mux muy muz
      1   1    1.0000      -4.963839      -2.286622       2.916762      -0.840743      -0.057389       0.538385
      2   2   -1.0000       1.968739       1.984096       2.514354      -0.578387      -0.773524      -0.259093
      3   1    1.0000      -1.966382      -3.764107      -2.675670      -0.999875       0.010804       0.011571
      4   2   -1.0000       3.635949       4.896948      -0.582245       0.906924       0.273133      -0.320761
      5   2   -1.0000      -4.838900      -3.396411      -1.203755       0.719598       0.694279       0.012456
ITEM: TIMESTEP
1200
ITEM: NUMBER OF ATOMS
5
ITEM: BOX BOUNDS ff ff ff
-5.00000000    5.00000000     
-5.00000000    5.00000000     
-5.00000000    5.00000000     
ITEM: ATOMS id type q x y z mux muy muz
      1   1    1.0000      -4.931260      -2.328671       2.898896      -0.844865      -0.062903       0.531268
      2   2   -1.0000       1.973254       1.956899       2.565052      -0.582645      -0.759001      -0.290590
      3   1    1.0000      -1.975487      -3.744056      -2.709494      -0.951940      -0.227517       0.205050
      4   2   -1.0000       3.664384       4.871011      -0.631992       0.918496       0.262509      -0.295726
      5   2   -1.0000      -4.830457      -3.377011      -1.153017       0.693720       0.719425       0.034338
ITEM: TIMESTEP
1300
ITEM: NUMBER OF ATOMS
5
ITEM: BOX BOUNDS ff ff ff
-5.00000000    5.00000000     
-5.00000000    5.00000000     
-5.00000000    5.00000000     
ITEM: ATOMS id type q x y z mux muy muz
      1   1    1.0000      -4.898780      -2.370495       2.880841      -0.849637      -0.068190       0.522941
      2   2   -1.0000       1.977540       1.929375       2.616060      -0.585478      -0.743245      -0.323732
      3   1    1.0000      -1.985321      -3.724268      -2.742868      -0.813102      -0.442119       0.378675
      4   2   -1.0000       3.692717       4.845567      -0.682058       0.929665       0.251080      -0.269597
      5   2   -1.0000      -4.821227      -3.357425      -1.102529       0.662627       0.746713       0.057832
ITEM: TIMESTEP
1400
ITEM: NUMBER OF ATOMS
5
ITEM: BOX BOUNDS ff ff ff
-5.00000000    5.00000000     
-5.00000000    5.00000000     
-5.00000000    5.00000000     
ITEM: ATOMS id type q x y z mux muy muz
      1   1    1.0000      -4.866399      -2.412100       2.862583      -0.855045      -0.073291       0.513349
      2   2   -1.0000       1.981614       1.901560       2.667348      -0.586848      -0.726105      -0.358302
      3   1    1.0000      -1.995915      -3.704688      -2.775783      -0.598101      -0.612864       0.516403
      4   2   -1.0000       3.720942       4.820573      -0.732414       0.940282       0.238982      -0.242399
      5   2   -1.0000      -4.811178      -3.337699      -1.052288       0.626103       0.775399       0.082162
ITEM: TIMESTEP
1500
ITEM: NUMBER OF ATOMS
5
ITEM: BOX BOUNDS ff ff ff
-5.00000000    5.00000000     
-5.00000000    5.00000000     
-5.00000000    5.00000000     
ITEM: ATOMS id type q x y z mux muy muz
      1   1    1.0000      -4.834118      -2.453490       2.844106      -0.861083      -0.078272       0.502403
      2   2   -1.0000       1.985490       1.873487       2.718886      -0.586713      -0.707446      -0.394066
      3   1    1.0000      -2.007267      -3.685254      -2.808237      -0.328405      -0.724396       0.606135
      4   2   -1.0000       3.749052       4.795990      -0.783028       0.950212       0.226338      -0.214168
      5   2   -1.0000      -4.800313      -3.317887      -1.002281       0.584269       0.804561       0.106355
ITEM: TIMESTEP
1600
ITEM: NUMBER OF ATOMS
5
ITEM: BOX BOUNDS ff ff ff
-5.00000000    5.00000000     
-5.00000000    5.00000000     
-5.00000000    5.00000000     
ITEM: ATOMS id type q x y z mux muy muz
      1   1    1.0000      -4.801935      -2.494672       2.825393      -0.867746      -0.083227       0.489990
      2   2   -1.0000       1.989180       1.845186       2.770641      -0.585028      -0.687157      -0.430763
      3   1    1.0000      -2.019343      -3.665904      -2.840242      -0.029788      -0.767290       0.640608
      4   2   -1.0000       3.777038       4.771781      -0.833869       0.959327       0.213269      -0.184951
      5   2   -1.0000      -4.788670      -3.298042      -0.952477       0.537620       0.833211       0.129322
ITEM: TIMESTEP
1700
ITEM: NUMBER OF ATOMS
5
ITEM: BOX BOUNDS ff ff ff
-5.00000000    5.00000000     
-5.00000000    5.00000000     
-5.00000000    5.00000000     
ITEM: ATOMS id type q x y z mux muy muz
      1   1    1.0000      -4.769850      -2.535654       2.806424      -0.875014      -0.088278       0.475980
      2   2   -1.0000       1.992696       1.816687       2.822578      -0.581755      -0.665167      -0.468096
      3   1    1.0000      -2.032079      -3.646583      -2.871816       0.270214      -0.738505       0.617733
      4   2   -1.0000       3.804892       4.747911      -0.884906       0.967508       0.199897      -0.154821
      5   2   -1.0000      -4.776315      -3.278208      -0.902833       0.487015       0.860423       0.149960
ITEM: TIMESTEP
1800
ITEM: NUMBER OF ATOMS
5
ITEM: BOX BOUNDS ff ff ff
-5.00000000    5.00000000     
-5.00000000    5.00000000     
-5.00000000    5.00000000     
ITEM: ATOMS id type q x y z mux muy muz
      1   1    1.0000      -4.737861      -2.576444       2.787177      -0.882851      -0.093574       0.460236
      2   2   -1.0000       1.996049       1.788017       2.874660      -0.576862      -0.641459      -0.505728
      3   1    1.0000      -2.045388      -3.627249      -2.902991       0.544673      -0.641276       0.540460
      4   2   -1.0000       3.832606       4.724351      -0.936108       0.974642       0.186348      -0.123883
      5   2   -1.0000      -4.763339      -3.258414      -0.853293       0.433624       0.885433       0.167266
ITEM: TIMESTEP
1900
ITEM: NUMBER OF ATOMS
5
ITEM: BOX BOUNDS ff ff ff
-5.00000000    5.00000000     
-5.00000000    5.00000000     
-5.00000000    5.00000000     
ITEM: ATOMS id type q x y z mux muy muz
      1   1    1.0000      -4.705963      -2.617053       2.767632      -0.891193      -0.099282       0.442625
      2   2   -1.0000       1.999248       1.759203       2.926851      -0.570341      -0.616085      -0.543277
      3   1    1.0000      -2.059171      -3.607877      -2.933801       0.769332      -0.484576       0.416311
      4   2   -1.0000       3.860169       4.701072      -0.987444       0.980632       0.172755      -0.092285
      5   2   -1.0000      -4.749851      -3.238671      -0.803792       0.378824       0.907712       0.180423
ITEM: TIMESTEP
2000
ITEM: NUMBER OF ATOMS
5
ITEM: BOX BOUNDS ff ff ff
-5.00000000    5.00000000     
-5.00000000    5.00000000     
-5.00000000    5.00000000     
ITEM: ATOMS id type q x y z mux muy muz
      1   1    1.0000      -4.674148      -2.657493       2.747765      -0.899945      -0.105579       0.423027
      2   2   -1.0000       2.002300       1.730270       2.979113      -0.562215      -0.589178      -0.580330
      3   1    1.0000      -2.073321      -3.588464      -2.964281       0.924348      -0.282307       0.256679
      4   2   -1.0000       3.887574       4.678050      -1.038887       0.985399       0.159256      -0.060218
      5   2   -1.0000      -4.735964      -3.218969      -0.754263       0.324060       0.926989       0.188883
ITEM: TIMESTEP
2100
ITEM: NUMBER OF ATOMS
5
ITEM: BOX BOUNDS ff ff ff
-5.00000000    5.00000000     
-5.00000000    5.00000000     
-5.00000000    5.00000000     
ITEM: ATOMS id type q x y z mux muy muz
      1   1    1.0000      -4.642406      -2.697777       2.727549      -0.908977      -0.112642       0.401338
      2   2   -1.0000       2.005213       1.701242       3.031414      -0.552544      -0.560952      -0.616463
      3   1    1.0000      -2.087738      -3.569028      -2.994458       0.995742      -0.052242       0.075953
      4   2   -1.0000       3.914810       4.655263      -1.090411       0.988892       0.145993      -0.027918
      5   2   -1.0000      -4.721790      -3.199275      -0.704647       0.270712       0.943238       0.192399
ITEM: TIMESTEP
2200
ITEM: NUMBER OF ATOMS
5
ITEM: BOX BOUNDS ff ff ff
-5.00000000    5.00000000     
-5.00000000    5.00000000     
-5.00000000    5.00000000     
ITEM: ATOMS id type q x y z mux muy muz
      1   1    1.0000      -4.610720      -2.737925       2.706956      -0.918130      -0.120635       0.377471
      2   2   -1.0000       2.007993       1.672142       3.083726      -0.541432      -0.531692      -0.651272
      3   1    1.0000      -2.102335      -3.549601      -3.024348       0.976565       0.185253      -0.109551
      4   2   -1.0000       3.941871       4.632691      -1.141993       0.991093       0.133097       0.004352
      5   2   -1.0000      -4.707432      -3.179541      -0.654894       0.219961       0.956623       0.191023
ITEM: TIMESTEP
2300
ITEM: NUMBER OF ATOMS
5
ITEM: BOX BOUNDS ff ff ff
-5.00000000    5.00000000     
-5.00000000    5.00000000     
-5.00000000    5.00000000     
ITEM: ATOMS id type q x y z mux muy muz
      1   1    1.0000      -4.579072      -2.777955       2.685954      -0.927216      -0.129700       0.351353
      2   2   -1.0000       2.010645       1.642987       3.136022      -0.529019      -0.501731      -0.684401
      3   1    1.0000      -2.117042      -3.530230      -3.053944       0.867701       0.408771      -0.282845
      4   2   -1.0000       3.968751       4.610316      -1.193615       0.992026       0.120686       0.036321
      5   2   -1.0000      -4.692976      -3.159706      -0.604971       0.172712       0.967430       0.185065
ITEM: TIMESTEP
2400
ITEM: NUMBER OF ATOMS
5
ITEM: BOX BOUNDS ff ff ff
-5.00000000    5.00000000     
-5.00000000    5.00000000     
-5.00000000    5.00000000     
ITEM: ATOMS id type q x y z mux muy muz
      1   1    1.0000      -4.547435      -2.817892       2.664506      -0.936027      -0.139946       0.322906
      2   2   -1.0000       2.013175       1.613796       3.188286      -0.515476      -0.471420      -0.715575
      3   1    1.0000      -2.131809      -3.510962      -3.083222       0.678147       0.597648      -0.427706
      4   2   -1.0000       3.995446       4.588123      -1.245262       0.991748       0.108851       0.067732
      5   2   -1.0000      -4.678491      -3.139702      -0.554862       0.129555       0.976004       0.175020
ITEM: TIMESTEP
2500
ITEM: NUMBER OF ATOMS
5
ITEM: BOX BOUNDS ff ff ff
-5.00000000    5.00000000     
-5.00000000    5.00000000     
-5.00000000    5.00000000     
ITEM: ATOMS id type q x y z mux muy muz
      1   1    1.0000      -4.515782      -2.857761       2.642569      -0.944343      -0.151442       0.292031
      2   2   -1.0000       2.015586       1.584580       3.240502      -0.500986      -0.441097      -0.744612
      3   1    1.0000      -2.146610      -3.491846      -3.112135       0.424608       0.733898      -0.530191
      4   2   -1.0000       4.021954       4.566099      -1.296922       0.990348       0.097653       0.098361
      5   2   -1.0000      -4.664028      -3.119467      -0.504569       0.090772       0.982692       0.161481
ITEM: TIMESTEP
2600
ITEM: NUMBER OF ATOMS
5
ITEM: BOX BOUNDS ff ff ff
-5.00000000    5.00000000     
-5.00000000    5.00000000     
-5.00000000    5.00000000     
ITEM: ATOMS id type q x y z mux muy muz
      1   1    1.0000      -4.484080      -2.897586       2.620093      -0.951927      -0.164215       0.258591
      2   2   -1.0000       2.017883       1.555353       3.292663      -0.485728      -0.411058      -0.771427
      3   1    1.0000      -2.161435      -3.472919      -3.140619       0.130269       0.804068      -0.580090
      4   2   -1.0000       4.048277       4.544232      -1.348587       0.987936       0.087117       0.128033
      5   2   -1.0000      -4.649620      -3.098944      -0.454104       0.056394       0.987818       0.145038
ITEM: TIMESTEP
2700
ITEM: NUMBER OF ATOMS
5
ITEM: BOX BOUNDS ff ff ff
-5.00000000    5.00000000     
-5.00000000    5.00000000     
-5.00000000    5.00000000     
ITEM: ATOMS id type q x y z mux muy muz
      1   1    1.0000      -4.452297      -2.937393       2.597020      -0.958526      -0.178244       0.222388
      2   2   -1.0000       2.020069       1.526122       3.344759      -0.469870      -0.381536      -0.796023
      3   1    1.0000      -2.176293      -3.454210      -3.168600      -0.177225       0.800803      -0.572106
      4   2   -1.0000       4.074414       4.522514      -1.400247       0.984633       0.077241       0.156628
      5   2   -1.0000      -4.635288      -3.078092      -0.403485       0.026262       0.991658       0.126193
ITEM: TIMESTEP
2800
ITEM: NUMBER OF ATOMS
5
ITEM: BOX BOUNDS ff ff ff
-5.00000000    5.00000000     
-5.00000000    5.00000000     
-5.00000000    5.00000000     
ITEM: ATOMS id type q x y z mux muy muz
      1   1    1.0000      -4.420400      -2.977201       2.573276      -0.963862      -0.193462       0.183148
      2   2   -1.0000       2.022147       1.496899       3.396783      -0.453554      -0.352698      -0.818470
      3   1    1.0000      -2.191200      -3.435729      -3.195996      -0.468457       0.723829      -0.506576
      4   2   -1.0000       4.100368       4.500939      -1.451892       0.980556       0.068000       0.184079
      5   2   -1.0000      -4.621044      -3.056887      -0.352726       0.000100       0.994442       0.105284
ITEM: TIMESTEP
2900
ITEM: NUMBER OF ATOMS
5
ITEM: BOX BOUNDS ff ff ff
-5.00000000    5.00000000     
-5.00000000    5.00000000     
-5.00000000    5.00000000     
ITEM: ATOMS id type q x y z mux muy muz
      1   1    1.0000      -4.388358      -3.017025       2.548778      -0.967608      -0.209744       0.140507
      2   2   -1.0000       2.024118       1.467693       3.448723      -0.436897      -0.324640      -0.838886
      3   1    1.0000      -2.206182      -3.417477      -3.222728      -0.715274       0.580184      -0.389577
      4   2   -1.0000       4.126138       4.479505      -1.503505       0.975819       0.059349       0.210366
      5   2   -1.0000      -4.606897      -3.035326      -0.301823      -0.022418       0.996345       0.082430
ITEM: TIMESTEP
3000
ITEM: NUMBER OF ATOMS
5
ITEM: BOX BOUNDS ff ff ff
-5.00000000    5.00000000     
-5.00000000    5.00000000     
-5.00000000    5.00000000     
ITEM: ATOMS id type q x y z mux muy muz
      1   1    1.0000      -4.356148      -3.056866       2.523421      -0.969370      -0.226900       0.094011
      2   2   -1.0000       2.025986       1.438519       3.500557      -0.419993      -0.297405      -0.857412
      3   1    1.0000      -2.221261      -3.399440      -3.248724      -0.893783       0.383603      -0.232380
      4   2   -1.0000       4.151720       4.458215      -1.555061       0.970522       0.051242       0.235504
      5   2   -1.0000      -4.592857      -3.013426      -0.250747      -0.041621       0.997478       0.057492
ITEM: TIMESTEP
3100
ITEM: NUMBER OF ATOMS
5
ITEM: BOX BOUNDS ff ff ff
-5.00000000    5.00000000     
-5.00000000    5.00000000     
-5.00000000    5.00000000     
ITEM: ATOMS id type q x y z mux muy muz
      1   1    1.0000      -4.323751      -3.096713       2.497076      -0.968651      -0.244655       0.043113
      2   2   -1.0000       2.027752       1.409395       3.552254      -0.402917      -0.270992      -0.874197
      3   1    1.0000      -2.236456      -3.381599      -3.273927      -0.986928       0.153115      -0.050285
      4   2   -1.0000       4.177105       4.437076      -1.606524       0.964749       0.043631       0.259531
      5   2   -1.0000      -4.578941      -2.991224      -0.199433      -0.057807       0.997875       0.030061
ITEM: TIMESTEP
3200
ITEM: NUMBER OF ATOMS
5
ITEM: BOX BOUNDS ff ff ff
-5.00000000    5.00000000     
-5.00000000    5.00000000     
-5.00000000    5.00000000     
ITEM: ATOMS id type q x y z mux muy muz
      1   1    1.0000      -4.291161      -3.136537       2.469586      -0.964813      -0.262623      -0.012806
      2   2   -1.0000       2.029417       1.380348       3.603768      -0.385735      -0.245370      -0.889383
      3   1    1.0000      -2.251776      -3.363929      -3.298295      -0.986284      -0.088986       0.139015
      4   2   -1.0000       4.202279       4.416101      -1.657845       0.958573       0.036476       0.282502
      5   2   -1.0000      -4.565172      -2.968778      -0.147768      -0.071221       0.997460      -0.000540
ITEM: TIMESTEP
3300
ITEM: NUMBER OF ATOMS
5
ITEM: BOX BOUNDS ff ff ff
-5.00000000    5.00000000     
-5.00000000    5.00000000     
-5.00000000    5.00000000     
ITEM: ATOMS id type q x y z mux muy muz
      1   1    1.0000      -4.258384      -3.176279       2.440753      -0.957036      -0.280261      -0.074400
      2   2   -1.0000       2.030982       1.351411       3.655033      -0.368506      -0.220500      -0.903096
      3   1    1.0000      -2.267216      -3.346409      -3.321804      -0.892866      -0.319526       0.317322
      4   2   -1.0000       4.227217       4.395309      -1.708957       0.952056       0.029752       0.304473
      5   2   -1.0000      -4.551586      -2.946168      -0.095579      -0.082051       0.996006      -0.035219
ITEM: TIMESTEP
3400
ITEM: NUMBER OF ATOMS
5
ITEM: BOX BOUNDS ff ff ff
-5.00000000    5.00000000     
-5.00000000    5.00000000     
-5.00000000    5.00000000     
ITEM: ATOMS id type q x y z mux muy muz
      1   1    1.0000      -4.225449      -3.215850       2.410331      -0.944273      -0.296817      -0.142293
      2   2   -1.0000       2.032449       1.322632       3.705963      -0.351295      -0.196343      -0.915446
      3   1    1.0000      -2.282756      -3.329027      -3.344447      -0.716872      -0.516907       0.467869
      4   2   -1.0000       4.251887       4.374727      -1.759771       0.945252       0.023445       0.325497
      5   2   -1.0000      -4.538231      -2.923498      -0.042629      -0.090433       0.993070      -0.075059
ITEM: TIMESTEP
3500
ITEM: NUMBER OF ATOMS
5
ITEM: BOX BOUNDS ff ff ff
-5.00000000    5.00000000     
-5.00000000    5.00000000     
-5.00000000    5.00000000     
ITEM: ATOMS id type q x y z mux muy muz
      1   1    1.0000      -4.192409      -3.255109       2.378010      -0.925226      -0.311259      -0.216968
      2   2   -1.0000       2.033819       1.294069       3.756446      -0.334177      -0.172872      -0.926521
      3   1    1.0000      -2.298353      -3.311781      -3.366227      -0.476405      -0.663364       0.577050
      4   2   -1.0000       4.276242       4.354389      -1.810179       0.938211       0.017561       0.345618
      5   2   -1.0000      -4.525159      -2.900907       0.011396      -0.096464       0.987928      -0.121212
ITEM: TIMESTEP
3600
ITEM: NUMBER OF ATOMS
5
ITEM: BOX BOUNDS ff ff ff
-5.00000000    5.00000000     
-5.00000000    5.00000000     
-5.00000000    5.00000000     
ITEM: ATOMS id type q x y z mux muy muz
      1   1    1.0000      -4.159356      -3.293850       2.343407      -0.898340      -0.322197      -0.298619
      2   2   -1.0000       2.035094       1.265801       3.806343      -0.317233      -0.150081      -0.936397
      3   1    1.0000      -2.313945      -3.294690      -3.387156      -0.195321      -0.746744       0.635785
      4   2   -1.0000       4.300222       4.334342      -1.860042       0.930980       0.012115       0.364869
      5   2   -1.0000      -4.512426      -2.878583       0.066894      -0.100228       0.979498      -0.174754
ITEM: TIMESTEP
3700
ITEM: NUMBER OF ATOMS
5
ITEM: BOX BOUNDS ff ff ff
-5.00000000    5.00000000     
-5.00000000    5.00000000     
-5.00000000    5.00000000     
ITEM: ATOMS id type q x y z mux muy muz
      1   1    1.0000      -4.126440      -3.331774       2.306049      -0.861873      -0.327813      -0.386928
      2   2   -1.0000       2.036273       1.237922       3.855475      -0.300559      -0.127983      -0.945137
      3   1    1.0000      -2.329449      -3.277788      -3.407242       0.099548      -0.761621       0.640331
      4   2   -1.0000       4.323748       4.314643      -1.909186       0.923609       0.007133       0.383270
      5   2   -1.0000      -4.500070      -2.856788       0.124350      -0.101843       0.966288      -0.236466
ITEM: TIMESTEP
3800
ITEM: NUMBER OF ATOMS
5
ITEM: BOX BOUNDS ff ff ff
-5.00000000    5.00000000     
-5.00000000    5.00000000     
-5.00000000    5.00000000     
ITEM: ATOMS id type q x y z mux muy muz
      1   1    1.0000      -4.093893      -3.368449       2.265367      -0.814043      -0.325807      -0.480816
      2   2   -1.0000       2.037358       1.210555       3.903627      -0.284255      -0.106609      -0.952803
      3   1    1.0000      -2.344758      -3.261138      -3.426486       0.381502      -0.709565       0.592430
      4   2   -1.0000       4.346723       4.295366      -1.957401       0.916147       0.002647       0.400833
      5   2   -1.0000      -4.488096      -2.835893       0.184339      -0.101520       0.946420      -0.306567
ITEM: TIMESTEP
3900
ITEM: NUMBER OF ATOMS
5
ITEM: BOX BOUNDS ff ff ff
-5.00000000    5.00000000     
-5.00000000    5.00000000     
-5.00000000    5.00000000     
ITEM: ATOMS id type q x y z mux muy muz