ITEM: TIMESTEP
0
ITEM: NUMBER OF ATOMS
5
ITEM: BOX BOUNDS ff ff ff
-5.00000000    5.00000000     
-5.00000000    5.00000000     
-5.00000000    5.00000000     
ITEM: ATOMS id type q x y z mux muy muz
      1   1    1.0000      -0.328283       2.047997      -1.911466      -0.354228       0.749422      -0.559364
      2   2   -1.0000      -1.847221      -4.394393       1.868488      -0.255916      -0.947837      -0.190031
      3   1    1.0000       0.678571      -1.505715       2.050980      -0.769411      -0.118557       0.627656
      4   2   -1.0000       0.373701      -0.307599       0.113312       0.460613      -0.128471      -0.878255
      5   2   -1.0000       1.363097       1.600201      -2.109951       0.289586      -0.148425       0.945574
ITEM: TIMESTEP
100
ITEM: NUMBER OF ATOMS
5
ITEM: BOX BOUNDS ff ff ff
-5.00000000    5.00000000     
-5.00000000    5.00000000     
-5.00000000    5.00000000     
ITEM: ATOMS id type q x y z mux muy muz
      1   1    1.0000      -0.328941       2.022178      -1.901458      -0.320974       0.750513      -0.577673
      2   2   -1.0000      -1.849518      -4.385713       1.896297      -0.250481      -0.949188      -0.190531
      3   1    1.0000       0.709590      -1.502327       1.958893      -0.780377      -0.114431       0.614750
      4   2   -1.0000       0.385662      -0.312650       0.120946       0.456220      -0.116646      -0.882189
      5   2   -1.0000       1.323073       1.619004      -2.063313       0.095504      -0.083041       0.991959
ITEM: TIMESTEP
200
ITEM: NUMBER OF ATOMS
5
ITEM: BOX BOUNDS ff ff ff
-5.00000000    5.00000000     
-5.00000000    5.00000000     
-5.00000000    5.00000000     
ITEM: ATOMS id type q x y z mux muy muz
      1   1    1.0000      -0.325912       1.994614      -1.891142      -0.269200       0.745381      -0.609868
      2   2   -1.0000      -1.851195      -4.376796       1.923676      -0.248028      -0.949458      -0.192385
      3   1    1.0000       0.739779      -1.498908       1.867056      -0.804348      -0.099211       0.585817
      4   2   -1.0000       0.396507      -0.318018       0.130444       0.451949      -0.105989      -0.885725
      5   2   -1.0000       1.280688       1.639599      -2.018670      -0.094990      -0.030614       0.995007
ITEM: TIMESTEP
300
ITEM: NUMBER OF ATOMS
5
ITEM: BOX BOUNDS ff ff ff
-5.00000000    5.00000000     
-5.00000000    5.00000000     
-5.00000000    5.00000000     
ITEM: ATOMS id type q x y z mux muy muz
      1   1    1.0000      -0.318859       1.965820      -1.881043      -0.205889       0.732136      -0.649297
      2   2   -1.0000      -1.852264      -4.367697       1.950430      -0.247858      -0.948979      -0.194947
      3   1    1.0000       0.769073      -1.495164       1.775643      -0.837002      -0.072938       0.542316
      4   2   -1.0000       0.406155      -0.323966       0.142046       0.448061      -0.095337      -0.888905
      5   2   -1.0000       1.235761       1.661498      -1.975712      -0.268515       0.003288       0.963270
ITEM: TIMESTEP
400
ITEM: NUMBER OF ATOMS
5
ITEM: BOX BOUNDS ff ff ff
-5.00000000    5.00000000     
-5.00000000    5.00000000     
-5.00000000    5.00000000     
ITEM: ATOMS id type q x y z mux muy muz
      1   1    1.0000      -0.307473       1.936453      -1.871819      -0.137309       0.709839      -0.690851
      2   2   -1.0000      -1.852748      -4.358490       1.976344      -0.249395      -0.948003      -0.197718
      3   1    1.0000       0.797361      -1.490653       1.684790      -0.873996      -0.035203       0.484656
      4   2   -1.0000       0.414567      -0.330907       0.156083       0.444544      -0.083072      -0.891897
      5   2   -1.0000       1.188160       1.684087      -1.934034      -0.415055       0.014307       0.909684
ITEM: TIMESTEP
500
ITEM: NUMBER OF ATOMS
5
ITEM: BOX BOUNDS ff ff ff
-5.00000000    5.00000000     
-5.00000000    5.00000000     
-5.00000000    5.00000000     
ITEM: ATOMS id type q x y z mux muy muz
      1   1    1.0000      -0.291506       1.907302      -1.864257      -0.069378       0.678868      -0.730976
      2   2   -1.0000      -1.852689      -4.349265       2.001187      -0.252163      -0.946725      -0.200314
      3   1    1.0000       0.824446      -1.484730       1.594588      -0.910590       0.014384       0.413060
      4   2   -1.0000       0.421786      -0.339448       0.172983       0.441007      -0.067156      -0.894988
      5   2   -1.0000       1.137829       1.706632      -1.893138      -0.527269      -0.001171       0.849698
ITEM: TIMESTEP
600
ITEM: NUMBER OF ATOMS
5
ITEM: BOX BOUNDS ff ff ff
-5.00000000    5.00000000     
-5.00000000    5.00000000     
-5.00000000    5.00000000     
ITEM: ATOMS id type q x y z mux muy muz
      1   1    1.0000      -0.270696       1.879278      -1.859258      -0.007393       0.640909      -0.767581
      2   2   -1.0000      -1.852146      -4.340139       2.024706      -0.255742      -0.945311      -0.202442
      3   1    1.0000       0.849975      -1.476498       1.505135      -0.941478       0.075593       0.328489
      4   2   -1.0000       0.428000      -0.350444       0.193243       0.436523      -0.045155      -0.898559
      5   2   -1.0000       1.084733       1.728294      -1.852463      -0.598824      -0.046414       0.799535
ITEM: TIMESTEP
700
ITEM: NUMBER OF ATOMS
5
ITEM: BOX BOUNDS ff ff ff
-5.00000000    5.00000000     
-5.00000000    5.00000000     
-5.00000000    5.00000000     
ITEM: ATOMS id type q x y z mux muy muz
      1   1    1.0000      -0.244528       1.853401      -1.857784       0.044869       0.598618      -0.799777
      2   2   -1.0000      -1.851200      -4.331267       2.046600      -0.259731      -0.943908      -0.203905
      3   1    1.0000       0.873326      -1.464757       1.416672      -0.961179       0.146970       0.233526
      4   2   -1.0000       0.433614      -0.365033       0.217372       0.429421      -0.014338      -0.902991
      5   2   -1.0000       1.028656       1.748148      -1.811496      -0.621385      -0.124017       0.773628
ITEM: TIMESTEP
800
ITEM: NUMBER OF ATOMS
5
ITEM: BOX BOUNDS ff ff ff
-5.00000000    5.00000000     
-5.00000000    5.00000000     
-5.00000000    5.00000000     
ITEM: ATOMS id type q x y z mux muy muz
      1   1    1.0000      -0.211729       1.830787      -1.860639       0.086955       0.555133      -0.827204
      2   2   -1.0000      -1.849960      -4.322868       2.066468      -0.263740      -0.942642      -0.204615
      3   1    1.0000       0.893454      -1.448006       1.329879      -0.965130       0.225559       0.132842
      4   2   -1.0000       0.439341      -0.384633       0.245751       0.417103       0.028095      -0.908425
      5   2   -1.0000       0.968760       1.765211      -1.770095      -0.581015      -0.233182       0.779775
ITEM: TIMESTEP
900
ITEM: NUMBER OF ATOMS
5
ITEM: BOX BOUNDS ff ff ff
-5.00000000    5.00000000     
-5.00000000    5.00000000     
-5.00000000    5.00000000     
ITEM: ATOMS id type q x y z mux muy muz
      1   1    1.0000      -0.169993       1.812561      -1.867761       0.125156       0.513811      -0.848725
      2   2   -1.0000      -1.848566      -4.315254       2.083760      -0.267423      -0.941605      -0.204612
      3   1    1.0000       0.908725      -1.424556       1.246287      -0.951040       0.307338       0.032638
      4   2   -1.0000       0.446289      -0.410805       0.278392       0.395893       0.084765      -0.914376
      5   2   -1.0000       0.903411       1.778544      -1.729315      -0.458671      -0.362585       0.811266
ITEM: TIMESTEP
1000
ITEM: NUMBER OF ATOMS
5
ITEM: BOX BOUNDS ff ff ff
-5.00000000    5.00000000     
-5.00000000    5.00000000     
-5.00000000    5.00000000     
ITEM: ATOMS id type q x y z mux muy muz
      1   1    1.0000      -0.152631       1.799890      -1.882176       0.178311       0.478748      -0.859654
      2   2   -1.0000      -1.847164      -4.308662       2.098163      -0.270523      -0.940840      -0.204051
      3   1    1.0000       0.917172      -1.392184       1.166605      -0.919399       0.388536      -0.061201
      4   2   -1.0000       0.456194      -0.445666       0.315483       0.360800       0.158090      -0.919147
      5   2   -1.0000       0.866294       1.787113      -1.686711      -0.245019      -0.481781       0.841340
ITEM: TIMESTEP
1100
ITEM: NUMBER OF ATOMS
5
ITEM: BOX BOUNDS ff ff ff
-5.00000000    5.00000000     
-5.00000000    5.00000000     
-5.00000000    5.00000000     
ITEM: ATOMS id type q x y z mux muy muz
      1   1    1.0000      -0.190174       1.789756      -1.907455       0.272379       0.454296      -0.848189
      2   2   -1.0000      -1.845677      -4.302294       2.111640      -0.272910      -0.940345      -0.203153
      3   1    1.0000       0.916662      -1.341405       1.077897      -0.871754       0.467759      -0.145759
      4   2   -1.0000       0.473807      -0.498986       0.364176       0.304049       0.251769      -0.918785
      5   2   -1.0000       0.885248       1.793419      -1.634894       0.024647      -0.549166       0.835349
ITEM: TIMESTEP
1200
ITEM: NUMBER OF ATOMS
5
ITEM: BOX BOUNDS ff ff ff
-5.00000000    5.00000000     
-5.00000000    5.00000000     
-5.00000000    5.00000000     
ITEM: ATOMS id type q x y z mux muy muz
      1   1    1.0000      -0.205655       1.781910      -1.919314       0.411746       0.437714      -0.799294
      2   2   -1.0000      -1.844531      -4.297562       2.121431      -0.274540      -0.940091      -0.202128
      3   1    1.0000       0.903320      -1.277801       0.997784      -0.806385       0.547761      -0.222938
      4   2   -1.0000       0.499570      -0.564582       0.415110       0.209193       0.374568      -0.903292
      5   2   -1.0000       0.887162       1.798525      -1.603647       0.290165      -0.548399       0.784259
ITEM: TIMESTEP
1300
ITEM: NUMBER OF ATOMS
5
ITEM: BOX BOUNDS ff ff ff
-5.00000000    5.00000000     
-5.00000000    5.00000000     
-5.00000000    5.00000000     
ITEM: ATOMS id type q x y z mux muy muz
      1   1    1.0000      -0.189418       1.774050      -1.914534       0.580729       0.419721      -0.697558
      2   2   -1.0000      -1.843503      -4.293180       2.130416      -0.275329      -0.940058      -0.201207
      3   1    1.0000       0.933654      -1.292962       0.995779      -0.723192       0.624704      -0.294514
      4   2   -1.0000       0.480650      -0.551343       0.390269       0.058220       0.520533      -0.851854
      5   2   -1.0000       0.858483       1.803925      -1.590567       0.509365      -0.490305       0.707211
ITEM: TIMESTEP
1400
ITEM: NUMBER OF ATOMS
5
ITEM: BOX BOUNDS ff ff ff
-5.00000000    5.00000000     
-5.00000000    5.00000000     
-5.00000000    5.00000000     
ITEM: ATOMS id type q x y z mux muy muz
      1   1    1.0000      -0.161506       1.766870      -1.896396       0.753738       0.388352      -0.530152
      2   2   -1.0000      -1.842724      -4.289573       2.137827      -0.275444      -0.940162      -0.200563
      3   1    1.0000       0.967584      -1.325291       1.016624      -0.643331       0.677450      -0.356633
      4   2   -1.0000       0.456097      -0.520638       0.347275      -0.107788       0.632254      -0.767227
      5   2   -1.0000       0.820415       1.809124      -1.593965       0.670270      -0.394905       0.628321
ITEM: TIMESTEP
1500
ITEM: NUMBER OF ATOMS
5
ITEM: BOX BOUNDS ff ff ff
-5.00000000    5.00000000     
-5.00000000    5.00000000     
-5.00000000    5.00000000     
ITEM: ATOMS id type q x y z mux muy muz
      1   1    1.0000      -0.183662       1.744787      -1.859137       0.897507       0.330507      -0.291970
      2   2   -1.0000      -1.841031      -4.281101       2.155308      -0.275107      -0.940336      -0.200213
      3   1    1.0000       0.998529      -1.331719       1.010319      -0.578214       0.703939      -0.412477
      4   2   -1.0000       0.447108      -0.518078       0.301371      -0.255271       0.692729      -0.674510
      5   2   -1.0000       0.818921       1.826603      -1.596497       0.790618      -0.269968       0.549582
ITEM: TIMESTEP
1600
ITEM: NUMBER OF ATOMS
5
ITEM: BOX BOUNDS ff ff ff
-5.00000000    5.00000000     
-5.00000000    5.00000000     
-5.00000000    5.00000000     
ITEM: ATOMS id type q x y z mux muy muz
      1   1    1.0000      -0.248258       1.718509      -1.819262       0.966533       0.253164      -0.041510
      2   2   -1.0000      -1.839132      -4.271075       2.176056      -0.274395      -0.940561      -0.200132
      3   1    1.0000       1.004969      -1.299844       0.965665      -0.530244       0.708124      -0.466264
      4   2   -1.0000       0.466608      -0.554560       0.284108      -0.375883       0.710799      -0.594539
      5   2   -1.0000       0.855680       1.847461      -1.595203       0.879203      -0.128561       0.458774
ITEM: TIMESTEP
1700
ITEM: NUMBER OF ATOMS
5
ITEM: BOX BOUNDS ff ff ff
-5.00000000    5.00000000     
-5.00000000    5.00000000     
-5.00000000    5.00000000     
ITEM: ATOMS id type q x y z mux muy muz
      1   1    1.0000      -0.249724       1.702616      -1.769312       0.969357       0.170471       0.176881
      2   2   -1.0000      -1.837416      -4.261338       2.196250      -0.273175      -0.940890      -0.200256
      3   1    1.0000       0.986776      -1.239981       0.890012      -0.493319       0.691112      -0.528205
      4   2   -1.0000       0.509995      -0.618938       0.299556      -0.481552       0.696169      -0.532407
      5   2   -1.0000       0.830236       1.858132      -1.605141       0.940608       0.023767       0.338663
ITEM: TIMESTEP
1800
ITEM: NUMBER OF ATOMS
5
ITEM: BOX BOUNDS ff ff ff
-5.00000000    5.00000000     
-5.00000000    5.00000000     
-5.00000000    5.00000000     
ITEM: ATOMS id type q x y z mux muy muz
      1   1    1.0000      -0.209297       1.695582      -1.721200       0.936690       0.095530       0.336878
      2   2   -1.0000      -1.835937      -4.252057       2.215531      -0.271242      -0.941390      -0.200529
      3   1    1.0000       1.032575      -1.269672       0.891101      -0.464338       0.648941      -0.602715
      4   2   -1.0000       0.488261      -0.593616       0.241028      -0.574256       0.650981      -0.496441
      5   2   -1.0000       0.764264       1.860253      -1.615097       0.967727       0.182088       0.174206
ITEM: TIMESTEP
1900
ITEM: NUMBER OF ATOMS
5
ITEM: BOX BOUNDS ff ff ff
-5.00000000    5.00000000     
-5.00000000    5.00000000     
-5.00000000    5.00000000     
ITEM: ATOMS id type q x y z mux muy muz
      1   1    1.0000      -0.259805       1.676707      -1.699619       0.908233       0.041946       0.416358
      2   2   -1.0000      -1.834810      -4.244167       2.231922      -0.268587      -0.942081      -0.200859
      3   1    1.0000       1.069825      -1.295056       0.887510      -0.442420       0.590549      -0.674920
      4   2   -1.0000       0.471510      -0.572003       0.195791      -0.649951       0.588803      -0.480495
      5   2   -1.0000       0.793146       1.875009      -1.604241       0.944027       0.327978      -0.035266
ITEM: TIMESTEP
2000
ITEM: NUMBER OF ATOMS
5
ITEM: BOX BOUNDS ff ff ff
-5.00000000    5.00000000     
-5.00000000    5.00000000     
-5.00000000    5.00000000     
ITEM: ATOMS id type q x y z mux muy muz
      1   1    1.0000      -0.312690       1.655747      -1.680555       0.902586       0.010501       0.430382
      2   2   -1.0000      -1.833566      -4.234493       2.251984      -0.265057      -0.943028      -0.201103
      3   1    1.0000       1.079219      -1.280063       0.839301      -0.427477       0.527615      -0.734088
      4   2   -1.0000       0.487348      -0.591674       0.184185      -0.706991       0.522922      -0.476147
      5   2   -1.0000       0.819555       1.890973      -1.583551       0.860034       0.439803      -0.258679
ITEM: TIMESTEP
2100
ITEM: NUMBER OF ATOMS
5
ITEM: BOX BOUNDS ff ff ff
-5.00000000    5.00000000     
-5.00000000    5.00000000     
-5.00000000    5.00000000     
ITEM: ATOMS id type q x y z mux muy muz
      1   1    1.0000      -0.308189       1.643302      -1.653214       0.917096      -0.002284       0.398660
      2   2   -1.0000      -1.832248      -4.223174       2.275415      -0.260125      -0.944401      -0.201102
      3   1    1.0000       1.069335      -1.230617       0.758763      -0.424686       0.475715      -0.770283
      4   2   -1.0000       0.526943      -0.646637       0.194792      -0.740433       0.469209      -0.481251
      5   2   -1.0000       0.784025       1.897617      -1.564392       0.725121       0.508399      -0.464467
ITEM: TIMESTEP
2200
ITEM: NUMBER OF ATOMS
5
ITEM: BOX BOUNDS ff ff ff
-5.00000000    5.00000000     
-5.00000000    5.00000000     
-5.00000000    5.00000000     
ITEM: ATOMS id type q x y z mux muy muz
      1   1    1.0000      -0.258398       1.635644      -1.612086       0.946073       0.006331       0.323892
      2   2   -1.0000      -1.830915      -4.210429       2.301771      -0.252377      -0.946591      -0.200679
      3   1    1.0000       1.140341      -1.251080       0.755279      -0.450798       0.456469      -0.767083
      4   2   -1.0000       0.489656      -0.632399       0.119530      -0.743655       0.448039      -0.496224
      5   2   -1.0000       0.699183       1.898755      -1.553131       0.563922       0.533797      -0.630121
ITEM: TIMESTEP
2300
ITEM: NUMBER OF ATOMS
5
ITEM: BOX BOUNDS ff ff ff
-5.00000000    5.00000000     
-5.00000000    5.00000000     
-5.00000000    5.00000000     
ITEM: ATOMS id type q x y z mux muy muz
      1   1    1.0000      -0.310136       1.598193      -1.569612       0.979424       0.051470       0.195141
      2   2   -1.0000      -1.829977      -4.200390       2.322535      -0.238476      -0.950432      -0.199518
      3   1    1.0000       1.183199      -1.250557       0.743049      -0.528568       0.468948      -0.707604
      4   2   -1.0000       0.473574      -0.637824       0.069682      -0.717509       0.459316      -0.523650
      5   2   -1.0000       0.723206       1.931069      -1.554291       0.437653       0.528484      -0.727437
ITEM: TIMESTEP
2400
ITEM: NUMBER OF ATOMS
5
ITEM: BOX BOUNDS ff ff ff
-5.00000000    5.00000000     
-5.00000000    5.00000000     
-5.00000000    5.00000000     
ITEM: ATOMS id type q x y z mux muy muz
      1   1    1.0000      -0.354791       1.561105      -1.516672       0.989898       0.138893       0.028470
      2   2   -1.0000      -1.829253      -4.191489       2.340942      -0.217138      -0.955970      -0.197412
      3   1    1.0000       1.182340      -1.213714       0.696650      -0.649749       0.495967      -0.576058
      4   2   -1.0000       0.498370      -0.679031       0.061054      -0.660745       0.496035      -0.563352
      5   2   -1.0000       0.743200       1.963619      -1.570610       0.427206       0.522824      -0.737665
ITEM: TIMESTEP
2500
ITEM: NUMBER OF ATOMS
5
ITEM: BOX BOUNDS ff ff ff
-5.00000000    5.00000000     
-5.00000000    5.00000000     
-5.00000000    5.00000000     
ITEM: ATOMS id type q x y z mux muy muz
      1   1    1.0000      -0.348275       1.541582      -1.459365       0.965785       0.235775      -0.108026
      2   2   -1.0000      -1.828735      -4.183727       2.356978      -0.194981      -0.961216      -0.195054
      3   1    1.0000       1.177078      -1.176526       0.649671      -0.748361       0.504196      -0.430978
      4   2   -1.0000       0.524658      -0.720024       0.060129      -0.596624       0.527869      -0.604478
      5   2   -1.0000       0.715140       1.979185      -1.596049       0.545450       0.524835      -0.653477
ITEM: TIMESTEP
2600
ITEM: NUMBER OF ATOMS
5
ITEM: BOX BOUNDS ff ff ff
-5.00000000    5.00000000     
-5.00000000    5.00000000     
-5.00000000    5.00000000     
ITEM: ATOMS id type q x y z mux muy muz
      1   1    1.0000      -0.285276       1.539700      -1.390473       0.925247       0.326223      -0.193643
      2   2   -1.0000      -1.828287      -4.175194       2.374593      -0.175390      -0.965402      -0.192970
      3   1    1.0000       1.240826      -1.188876       0.655096      -0.806815       0.483777      -0.339129
      4   2   -1.0000       0.484106      -0.711809       0.002125      -0.550995       0.530065      -0.644543
      5   2   -1.0000       0.628496       1.976670      -1.629976       0.729004       0.504785      -0.462326
ITEM: TIMESTEP
2700
ITEM: NUMBER OF ATOMS
5
ITEM: BOX BOUNDS ff ff ff
-5.00000000    5.00000000     
-5.00000000    5.00000000     
-5.00000000    5.00000000     
ITEM: ATOMS id type q x y z mux muy muz
      1   1    1.0000      -0.260067       1.527880      -1.330836       0.878341       0.407241      -0.250343
      2   2   -1.0000      -1.828046      -4.169336       2.386695      -0.159911      -0.968385      -0.191464
      3   1    1.0000       1.256299      -1.183913       0.630926      -0.837825       0.447758      -0.312348
      4   2   -1.0000       0.484497      -0.719547      -0.009803      -0.536445       0.505609      -0.675712
      5   2   -1.0000       0.587183       1.985407      -1.665619       0.871501       0.441504      -0.213448
ITEM: TIMESTEP
2800
ITEM: NUMBER OF ATOMS
5
ITEM: BOX BOUNDS ff ff ff
-5.00000000    5.00000000     
-5.00000000    5.00000000     
-5.00000000    5.00000000     
ITEM: ATOMS id type q x y z mux muy muz
      1   1    1.0000      -0.279456       1.495244      -1.259954       0.812652       0.484648      -0.323594
      2   2   -1.0000      -1.827860      -4.163201       2.399377      -0.146484      -0.970736      -0.190299
      3   1    1.0000       1.237259      -1.161596       0.572625      -0.851036       0.403176      -0.336432
      4   2   -1.0000       0.519982      -0.744704       0.010677      -0.551879       0.461383      -0.694662
      5   2   -1.0000       0.589941       2.014747      -1.711362       0.934604       0.355618       0.007190
ITEM: TIMESTEP
2900
ITEM: NUMBER OF ATOMS
5
ITEM: BOX BOUNDS ff ff ff
-5.00000000    5.00000000     
-5.00000000    5.00000000     
-5.00000000    5.00000000     
ITEM: ATOMS id type q x y z mux muy muz
      1   1    1.0000      -0.266279       1.482789      -1.206982       0.706191       0.558268      -0.435466
      2   2   -1.0000      -1.827698      -4.155328       2.415628      -0.132498      -0.972978      -0.189100
      3   1    1.0000       1.279716      -1.174536       0.547465      -0.844017       0.352420      -0.404271
      4   2   -1.0000       0.498381      -0.735354      -0.012680      -0.603213       0.399859      -0.690106
      5   2   -1.0000       0.555746       2.022919      -1.732067       0.948455       0.274625       0.158159
ITEM: TIMESTEP
3000
ITEM: NUMBER OF ATOMS
5
ITEM: BOX BOUNDS ff ff ff
-5.00000000    5.00000000     
-5.00000000    5.00000000     
-5.00000000    5.00000000     
ITEM: ATOMS id type q x y z mux muy muz
      1   1    1.0000      -0.226556       1.495167      -1.192325       0.549603       0.607241      -0.573755
      2   2   -1.0000      -1.827600      -4.147658       2.431441      -0.118008      -0.975104      -0.187740
      3   1    1.0000       1.327003      -1.189976       0.530810      -0.817880       0.309837      -0.484844
      4   2   -1.0000       0.471214      -0.723287      -0.043327      -0.682130       0.339230      -0.647782
      5   2   -1.0000       0.495804       2.006245      -1.715236       0.953464       0.235931       0.187729
ITEM: TIMESTEP
3100
ITEM: NUMBER OF ATOMS
5
ITEM: BOX BOUNDS ff ff ff
-5.00000000    5.00000000     
-5.00000000    5.00000000     
-5.00000000    5.00000000     
ITEM: ATOMS id type q x y z mux muy muz
      1   1    1.0000      -0.228659       1.480812      -1.157197       0.372182       0.610310      -0.699287
      2   2   -1.0000      -1.827525      -4.136609       2.454211      -0.104535      -0.976920      -0.186278
      3   1    1.0000       1.331031      -1.173313       0.468584      -0.785509       0.290788      -0.546277
      4   2   -1.0000       0.496018      -0.744503      -0.049337      -0.763668       0.299840      -0.571757
      5   2   -1.0000       0.469002       2.014104      -1.704898       0.961187       0.272353       0.044092
ITEM: TIMESTEP
3200
ITEM: NUMBER OF ATOMS
5
ITEM: BOX BOUNDS ff ff ff
-5.00000000    5.00000000     
-5.00000000    5.00000000     
-5.00000000    5.00000000     
ITEM: ATOMS id type q x y z mux muy muz
      1   1    1.0000      -0.264560       1.448802      -1.115149       0.253769       0.586549      -0.769131
      2   2   -1.0000      -1.827530      -4.127309       2.473367      -0.094180      -0.978231      -0.184917
      3   1    1.0000       1.324521      -1.148427       0.414415      -0.764962       0.303706      -0.567975
      4   2   -1.0000       0.526783      -0.772913      -0.052663      -0.823486       0.295895      -0.484064
      5   2   -1.0000       0.480652       2.040338      -1.708607       0.913676       0.351365      -0.204300
ITEM: TIMESTEP
3300
ITEM: NUMBER OF ATOMS
5
ITEM: BOX BOUNDS ff ff ff
-5.00000000    5.00000000     
-5.00000000    5.00000000     
-5.00000000    5.00000000     
ITEM: ATOMS id type q x y z mux muy muz
      1   1    1.0000      -0.274773       1.435245      -1.085124       0.218879       0.568706      -0.792884
      2   2   -1.0000      -1.827661      -4.111614       2.505662      -0.085929      -0.979235      -0.183615
      3   1    1.0000       1.400748      -1.141090       0.381840      -0.761433       0.333822      -0.555682
      4   2   -1.0000       0.491541      -0.785713      -0.117107      -0.861571       0.314046      -0.398837
      5   2   -1.0000       0.450011       2.043664      -1.673908       0.784521       0.424610      -0.451921
ITEM: TIMESTEP
3400
ITEM: NUMBER OF ATOMS
5
ITEM: BOX BOUNDS ff ff ff
-5.00000000    5.00000000     
-5.00000000    5.00000000     
-5.00000000    5.00000000     
ITEM: ATOMS id type q x y z mux muy muz
      1   1    1.0000      -0.246418       1.449717      -1.076822       0.272068       0.569786      -0.775450
      2   2   -1.0000      -1.827871      -4.097369       2.534971      -0.078516      -0.980091      -0.182365
      3   1    1.0000       1.433370      -1.121122       0.334920      -0.773659       0.356230      -0.523977
      4   2   -1.0000       0.496209      -0.810288      -0.158243      -0.885856       0.330086      -0.326041
      5   2   -1.0000       0.384575       2.019554      -1.623462       0.594717       0.479749      -0.645099
ITEM: TIMESTEP
3500
ITEM: NUMBER OF ATOMS
5
ITEM: BOX BOUNDS ff ff ff
-5.00000000    5.00000000     
-5.00000000    5.00000000     
-5.00000000    5.00000000     
ITEM: ATOMS id type q x y z mux muy muz
      1   1    1.0000      -0.249946       1.425172      -1.018202       0.412209       0.584508      -0.698881
      2   2   -1.0000      -1.828167      -4.083777       2.562941      -0.071279      -0.980866      -0.181168
      3   1    1.0000       1.419861      -1.090619       0.266432      -0.800429       0.354519      -0.483352
      4   2   -1.0000       0.545377      -0.844804      -0.173787      -0.902802       0.329036      -0.276918
      5   2   -1.0000       0.352741       2.034519      -1.626022       0.396201       0.525339      -0.753023
ITEM: TIMESTEP
3600
ITEM: NUMBER OF ATOMS
5
ITEM: BOX BOUNDS ff ff ff
-5.00000000    5.00000000     
-5.00000000    5.00000000     
-5.00000000    5.00000000     
ITEM: ATOMS id type q x y z mux muy muz
      1   1    1.0000      -0.251378       1.398781      -0.953923       0.576756       0.587311      -0.567819
      2   2   -1.0000      -1.828502      -4.072377       2.586370      -0.064132      -0.981575      -0.179995
      3   1    1.0000       1.460057      -1.085625       0.231953      -0.838820       0.315627      -0.443577
      4   2   -1.0000       0.535057      -0.852821      -0.209705      -0.916579       0.298639      -0.265891
      5   2   -1.0000       0.324633       2.052534      -1.643332       0.234257       0.571233      -0.786649
ITEM: TIMESTEP
3700
ITEM: NUMBER OF ATOMS
5
ITEM: BOX BOUNDS ff ff ff
-5.00000000    5.00000000     
-5.00000000    5.00000000     
-5.00000000    5.00000000     
ITEM: ATOMS id type q x y z mux muy muz
      1   1    1.0000      -0.215734       1.406878      -0.921414       0.707443       0.567792      -0.420877
      2   2   -1.0000      -1.828922      -4.060649       2.610417      -0.056989      -0.982236      -0.178784
      3   1    1.0000       1.508383      -1.088656       0.196943      -0.879153       0.247473      -0.407243
      4   2   -1.0000       0.517343      -0.852601      -0.246973      -0.926115       0.244617      -0.287183
      5   2   -1.0000       0.258796       2.035520      -1.627610       0.116717       0.618609      -0.776981
ITEM: TIMESTEP
3800
ITEM: NUMBER OF ATOMS
5
ITEM: BOX BOUNDS ff ff ff
-5.00000000    5.00000000     
-5.00000000    5.00000000     
-5.00000000    5.00000000     
ITEM: ATOMS id type q x y z mux muy muz
      1   1    1.0000      -0.177907       1.412685      -0.890139       0.781127       0.540032      -0.313379
      2   2   -1.0000      -1.829393      -4.048961       2.634324      -0.049475      -0.982894      -0.177404
      3   1    1.0000       1.501710      -1.080568       0.135071      -0.914056       0.165437      -0.370314
      4   2   -1.0000       0.554373      -0.863228      -0.257012      -0.927601       0.179695      -0.327514
      5   2   -1.0000       0.191082       2.020563      -1.610881       0.036224       0.663589      -0.747220
ITEM: TIMESTEP
3900
ITEM: NUMBER OF ATOMS
5
ITEM: BOX BOUNDS ff ff ff
-5.00000000    5.00000000     
-5.00000000    5.00000000     
-5.00000000    5.00000000     
ITEM: ATOMS id type q x y z mux muy muz