ITEM: TIMESTEP
0
ITEM: NUMBER OF ATOMS
5
ITEM: BOX BOUNDS ff ff ff
-5.00000000    5.00000000     
-5.00000000    5.00000000     
-5.00000000    5.00000000     
ITEM: ATOMS id type q x y z mux muy muz
      1   1    1.0000       1.832280      -2.305585       0.987580      -0.685503       0.635536       0.355217
      2   2   -1.0000      -0.560752       0.969429      -2.091026      -0.555466      -0.824887      -0.104966
      3   1    1.0000       2.154947       3.059606      -2.400660      -0.070254      -0.813051      -0.577938
      4   2   -1.0000      -1.993993       1.611349       1.955103      -0.418473      -0.681015       0.600915
      5   2   -1.0000       2.041332       1.827011      -1.071873       0.318735      -0.186490      -0.929317
ITEM: TIMESTEP
100
ITEM: NUMBER OF ATOMS
5
ITEM: BOX BOUNDS ff ff ff
-5.00000000    5.00000000     
-5.00000000    5.00000000     
-5.00000000    5.00000000     
ITEM: ATOMS id type q x y z mux muy muz
      1   1    1.0000       1.783518      -2.302029       1.022106      -0.685747       0.634624       0.356374
      2   2   -1.0000      -0.569282       0.951964      -2.074408      -0.554154      -0.827114      -0.093789
      3   1    1.0000       2.197620       3.091553      -2.382665      -0.072981      -0.847635      -0.525537
      4   2   -1.0000      -2.014046       1.591836       1.880608      -0.308328      -0.867015       0.391432
      5   2   -1.0000       2.076004       1.828485      -1.066517       0.311094      -0.192154      -0.930751
ITEM: TIMESTEP
200
ITEM: NUMBER OF ATOMS
5
ITEM: BOX BOUNDS ff ff ff
-5.00000000    5.00000000     
-5.00000000    5.00000000     
-5.00000000    5.00000000     
ITEM: ATOMS id type q x y z mux muy muz
      1   1    1.0000       1.734396      -2.297429       1.056378      -0.684390       0.637635       0.353599
      2   2   -1.0000      -0.577132       0.934357      -2.059787      -0.558241      -0.826658      -0.070741
      3   1    1.0000       2.238189       3.125000      -2.363472      -0.093130      -0.886637      -0.452992
      4   2   -1.0000      -2.034594       1.572093       1.806709      -0.172901      -0.973576       0.149184
      5   2   -1.0000       2.112956       1.827788      -1.060704       0.292831      -0.216378      -0.931359
ITEM: TIMESTEP
300
ITEM: NUMBER OF ATOMS
5
ITEM: BOX BOUNDS ff ff ff
-5.00000000    5.00000000     
-5.00000000    5.00000000     
-5.00000000    5.00000000     
ITEM: ATOMS id type q x y z mux muy muz
      1   1    1.0000       1.685058      -2.291836       1.090326      -0.681372       0.644442       0.347025
      2   2   -1.0000      -0.584293       0.916626      -2.047009      -0.567136      -0.822770      -0.037506
      3   1    1.0000       2.276583       3.159914      -2.342771      -0.128877      -0.924558      -0.358584
      4   2   -1.0000      -2.055552       1.552217       1.733489      -0.027170      -0.994628      -0.099880
      5   2   -1.0000       2.152018       1.824889      -1.054911       0.263896      -0.262224      -0.928223
ITEM: TIMESTEP
400
ITEM: NUMBER OF ATOMS
5
ITEM: BOX BOUNDS ff ff ff
-5.00000000    5.00000000     
-5.00000000    5.00000000     
-5.00000000    5.00000000     
ITEM: ATOMS id type q x y z mux muy muz
      1   1    1.0000       1.635634      -2.285307       1.123896      -0.676698       0.654610       0.336996
      2   2   -1.0000      -0.590733       0.898808      -2.035892      -0.579907      -0.814674       0.003631
      3   1    1.0000       2.312761       3.196151      -2.320068      -0.176906      -0.954117      -0.241590
      4   2   -1.0000      -2.076811       1.532280       1.661007       0.113802      -0.936639      -0.331295
      5   2   -1.0000       2.192963       1.819877      -1.049818       0.224162      -0.332103      -0.916220
ITEM: TIMESTEP
500
ITEM: NUMBER OF ATOMS
5
ITEM: BOX BOUNDS ff ff ff
-5.00000000    5.00000000     
-5.00000000    5.00000000     
-5.00000000    5.00000000     
ITEM: ATOMS id type q x y z mux muy muz
      1   1    1.0000       1.586236      -2.277903       1.157042      -0.670470       0.667439       0.324030
      2   2   -1.0000      -0.596417       0.880954      -2.026231      -0.595435      -0.801852       0.049916
      3   1    1.0000       2.346733       3.233376      -2.294661      -0.232178      -0.967150      -0.103513
      4   2   -1.0000      -2.098251       1.512328       1.589311       0.237691      -0.816242      -0.526548
      5   2   -1.0000       2.235513       1.813053      -1.046336       0.173563      -0.426451      -0.887702
ITEM: TIMESTEP
600
ITEM: NUMBER OF ATOMS
5
ITEM: BOX BOUNDS ff ff ff
-5.00000000    5.00000000     
-5.00000000    5.00000000     
-5.00000000    5.00000000     
ITEM: ATOMS id type q x y z mux muy muz
      1   1    1.0000       1.536951      -2.269686       1.189730      -0.662911       0.682060       0.308778
      2   2   -1.0000      -0.601317       0.863115      -2.017802      -0.612600      -0.784248       0.098373
      3   1    1.0000       2.378598       3.270946      -2.265641      -0.288052      -0.956263       0.050869
      4   2   -1.0000      -2.119747       1.492384       1.518434       0.336861      -0.655617      -0.675789
      5   2   -1.0000       2.279329       1.805050      -1.045596       0.112566      -0.541833      -0.832914
ITEM: TIMESTEP
700
ITEM: NUMBER OF ATOMS
5
ITEM: BOX BOUNDS ff ff ff
-5.00000000    5.00000000     
-5.00000000    5.00000000     
-5.00000000    5.00000000     
ITEM: ATOMS id type q x y z mux muy muz
      1   1    1.0000       1.487841      -2.260720       1.221933      -0.654357       0.697566       0.291922
      2   2   -1.0000      -0.605422       0.845334      -2.010376      -0.630463      -0.762327       0.146199
      3   1    1.0000       2.408570       3.307802      -2.231979      -0.337046      -0.917003       0.213319
      4   2   -1.0000      -2.141178       1.472451       1.448412       0.408913      -0.476903      -0.778045
      5   2   -1.0000       2.324004       1.796942      -1.048866       0.042927      -0.669204      -0.741837
ITEM: TIMESTEP
800
ITEM: NUMBER OF ATOMS
5
ITEM: BOX BOUNDS ff ff ff
-5.00000000    5.00000000     
-5.00000000    5.00000000     
-5.00000000    5.00000000     
ITEM: ATOMS id type q x y z mux muy muz
      1   1    1.0000       1.438961      -2.251073       1.253615      -0.645195       0.713179       0.274042
      2   2   -1.0000      -0.608750       0.827652      -2.003725      -0.648405      -0.736894       0.191199
      3   1    1.0000       2.436986       3.342396      -2.192686      -0.372211      -0.849736       0.373373
      4   2   -1.0000      -2.162426       1.452525       1.379301       0.455707      -0.297445      -0.838962
      5   2   -1.0000       2.369044       1.790309      -1.057381      -0.031633      -0.793700      -0.607487
ITEM: TIMESTEP
900
ITEM: NUMBER OF ATOMS
5
ITEM: BOX BOUNDS ff ff ff
-5.00000000    5.00000000     
-5.00000000    5.00000000     
-5.00000000    5.00000000     
ITEM: ATOMS id type q x y z mux muy muz
      1   1    1.0000       1.390397      -2.240820       1.284713      -0.635768       0.728381       0.255460
      2   2   -1.0000      -0.611349       0.810107      -1.997635      -0.666174      -0.708763       0.232092
      3   1    1.0000       2.464281       3.372704      -2.147081      -0.388562      -0.760173       0.520726
      4   2   -1.0000      -2.183364       1.432614       1.311227       0.481386      -0.127465      -0.867191
      5   2   -1.0000       2.413850       1.787205      -1.072100      -0.105409      -0.896979      -0.429322
ITEM: TIMESTEP
1000
ITEM: NUMBER OF ATOMS
5
ITEM: BOX BOUNDS ff ff ff
-5.00000000    5.00000000     
-5.00000000    5.00000000     
-5.00000000    5.00000000     
ITEM: ATOMS id type q x y z mux muy muz
      1   1    1.0000       1.342311      -2.230059       1.315101      -0.626300       0.742959       0.236136
      2   2   -1.0000      -0.613300       0.792763      -1.991914      -0.683847      -0.678413       0.268531
      3   1    1.0000       2.490926       3.396357      -2.095067      -0.383791      -0.658276       0.647594
      4   2   -1.0000      -2.203837       1.412763       1.244441       0.490345       0.029497      -0.871029
      5   2   -1.0000       2.457714       1.789985      -1.093437      -0.171550      -0.961476      -0.214788
ITEM: TIMESTEP
1100
ITEM: NUMBER OF ATOMS
5
ITEM: BOX BOUNDS ff ff ff
-5.00000000    5.00000000     
-5.00000000    5.00000000     
-5.00000000    5.00000000     
ITEM: ATOMS id type q x y z mux muy muz
      1   1    1.0000       1.294982      -2.218913       1.344571      -0.616849       0.756970       0.215626
      2   2   -1.0000      -0.614708       0.775720      -1.986405      -0.701742      -0.645779       0.300877
      3   1    1.0000       2.517349       3.410892      -2.037372      -0.357934      -0.556377       0.749886
      4   2   -1.0000      -2.223650       1.393073       1.179371       0.485871       0.174491      -0.856436
      5   2   -1.0000       2.499842       1.801038      -1.121041      -0.223340      -0.974496       0.021831
ITEM: TIMESTEP
1200
ITEM: NUMBER OF ATOMS
5
ITEM: BOX BOUNDS ff ff ff
-5.00000000    5.00000000     
-5.00000000    5.00000000     
-5.00000000    5.00000000     
ITEM: ATOMS id type q x y z mux muy muz
      1   1    1.0000       1.248805      -2.207536       1.372836      -0.607309       0.770649       0.193067
      2   2   -1.0000      -0.615697       0.759120      -1.980993      -0.720329      -0.610164       0.329889
      3   1    1.0000       2.543852       3.414059      -1.975621      -0.312308      -0.467754       0.826844
      4   2   -1.0000      -2.242570       1.373698       1.116608       0.469554       0.310849      -0.826372
      5   2   -1.0000       2.539425       1.822468      -1.153706      -0.255264      -0.930634       0.262223
ITEM: TIMESTEP
1300
ITEM: NUMBER OF ATOMS
5
ITEM: BOX BOUNDS ff ff ff
-5.00000000    5.00000000     
-5.00000000    5.00000000     
-5.00000000    5.00000000     
ITEM: ATOMS id type q x y z mux muy muz
      1   1    1.0000       1.204268      -2.196103       1.399559      -0.597420       0.784312       0.167168
      2   2   -1.0000      -0.616396       0.743144      -1.975604      -0.740141      -0.570205       0.356450
      3   1    1.0000       2.570548       3.404070      -1.912252      -0.248241      -0.406368       0.879341
      4   2   -1.0000      -2.260348       1.354836       1.056856       0.441170       0.442318      -0.780848
      5   2   -1.0000       2.575743       1.855862      -1.189433      -0.263613      -0.832751       0.486861
ITEM: TIMESTEP
1400
ITEM: NUMBER OF ATOMS
5
ITEM: BOX BOUNDS ff ff ff
-5.00000000    5.00000000     
-5.00000000    5.00000000     
-5.00000000    5.00000000     
ITEM: ATOMS id type q x y z mux muy muz
      1   1    1.0000       1.161903      -2.184800       1.424378      -0.586776       0.798210       0.136218
      2   2   -1.0000      -0.616927       0.727988      -1.970214      -0.761639      -0.523910       0.381345
      3   1    1.0000       2.597312       3.379678      -1.850307      -0.166143      -0.387614       0.906726
      4   2   -1.0000      -2.276740       1.336713       1.000870       0.398826       0.571369      -0.717270
      5   2   -1.0000       2.608266       1.902230      -1.225602      -0.246898      -0.693230       0.677106
ITEM: TIMESTEP
1500
ITEM: NUMBER OF ATOMS
5
ITEM: BOX BOUNDS ff ff ff
-5.00000000    5.00000000     
-5.00000000    5.00000000     
-5.00000000    5.00000000     
ITEM: ATOMS id type q x y z mux muy muz
      1   1    1.0000       1.122304      -2.173829       1.446916      -0.574901       0.812287       0.098379
      2   2   -1.0000      -0.617386       0.713867      -1.964848      -0.784875      -0.469019       0.404960
      3   1    1.0000       2.623703       3.339993      -1.793244      -0.065853      -0.428393       0.901190
      4   2   -1.0000      -2.291506       1.319583       0.949460       0.339735       0.696912      -0.631581
      5   2   -1.0000       2.636700       1.962196      -1.259159      -0.206803      -0.537562       0.817472
ITEM: TIMESTEP
1600
ITEM: NUMBER OF ATOMS
5
ITEM: BOX BOUNDS ff ff ff
-5.00000000    5.00000000     
-5.00000000    5.00000000     
-5.00000000    5.00000000     
ITEM: ATOMS id type q x y z mux muy muz
      1   1    1.0000       1.086258      -2.163450       1.466713      -0.561543       0.825759       0.052836
      2   2   -1.0000      -0.617824       0.701053      -1.959611      -0.808831      -0.404533       0.426784
      3   1    1.0000       2.648785       3.283870      -1.744868       0.049016      -0.540901       0.839657
      4   2   -1.0000      -2.304373       1.303792       0.903654       0.262966       0.811268      -0.522201
      5   2   -1.0000       2.660968       2.036544      -1.286762      -0.150210      -0.410353       0.899470
ITEM: TIMESTEP
1700
ITEM: NUMBER OF ATOMS
5
ITEM: BOX BOUNDS ff ff ff
-5.00000000    5.00000000     
-5.00000000    5.00000000     
-5.00000000    5.00000000     
ITEM: ATOMS id type q x y z mux muy muz
      1   1    1.0000       1.055109      -2.154098       1.483061      -0.547466       0.836824       0.002478
      2   2   -1.0000      -0.618211       0.689998      -1.954744      -0.830809      -0.334292       0.444978
      3   1    1.0000       2.670693       3.208462      -1.709113       0.159121      -0.710711       0.685252
      4   2   -1.0000      -2.314917       1.289944       0.865117       0.175429       0.900111      -0.398780
      5   2   -1.0000       2.681140       2.127504      -1.305198      -0.091041      -0.375051       0.922523
ITEM: TIMESTEP
1800
ITEM: NUMBER OF ATOMS
5
ITEM: BOX BOUNDS ff ff ff
-5.00000000    5.00000000     
-5.00000000    5.00000000     
-5.00000000    5.00000000     
ITEM: ATOMS id type q x y z mux muy muz
      1   1    1.0000       1.031285      -2.146582       1.494811      -0.535105       0.843623      -0.044300
      2   2   -1.0000      -0.618422       0.681527      -1.950724      -0.847516      -0.269450       0.457289
      3   1    1.0000       2.685651       3.124982      -1.694621       0.221057      -0.874530       0.431661
      4   2   -1.0000      -2.322435       1.279152       0.836702       0.095016       0.953178      -0.287096
      5   2   -1.0000       2.697736       2.222731      -1.307043      -0.047198      -0.481175       0.875353
ITEM: TIMESTEP
1900
ITEM: NUMBER OF ATOMS
5
ITEM: BOX BOUNDS ff ff ff
-5.00000000    5.00000000     
-5.00000000    5.00000000     
-5.00000000    5.00000000     
ITEM: ATOMS id type q x y z mux muy muz
      1   1    1.0000       1.001610      -2.136754       1.508484      -0.526717       0.846278      -0.079893
      2   2   -1.0000      -0.618390       0.670926      -1.945402      -0.858223      -0.220022       0.463729
      3   1    1.0000       2.695877       3.153935      -1.765108       0.204991      -0.962253       0.179021
      4   2   -1.0000      -2.331122       1.265447       0.802682       0.036655       0.977291      -0.208708
      5   2   -1.0000       2.725840       2.208255      -1.221532      -0.027749      -0.668783       0.742940
ITEM: TIMESTEP
2000
ITEM: NUMBER OF ATOMS
5
ITEM: BOX BOUNDS ff ff ff
-5.00000000    5.00000000     
-5.00000000    5.00000000     
-5.00000000    5.00000000     
ITEM: ATOMS id type q x y z mux muy muz
      1   1    1.0000       0.979297      -2.128975       1.518014      -0.520762       0.846558      -0.110207
      2   2   -1.0000      -0.617985       0.662936      -1.941255      -0.866044      -0.177652       0.467342
      3   1    1.0000       2.700072       3.170719      -1.812062       0.145345      -0.989272       0.014661
      4   2   -1.0000      -2.337150       1.254925       0.778180      -0.009553       0.988649      -0.149942
      5   2   -1.0000       2.749580       2.202204      -1.163753      -0.020842      -0.821284       0.570138
ITEM: TIMESTEP
2100
ITEM: NUMBER OF ATOMS
5
ITEM: BOX BOUNDS ff ff ff
-5.00000000    5.00000000     
-5.00000000    5.00000000     
-5.00000000    5.00000000     
ITEM: ATOMS id type q x y z mux muy muz
      1   1    1.0000       0.937924      -2.113893       1.534485      -0.514722       0.844716      -0.146683
      2   2   -1.0000      -0.616457       0.648135      -1.933431      -0.873611      -0.126175       0.469983
      3   1    1.0000       2.707871       3.139965      -1.838746       0.055598      -0.996796      -0.057500
      4   2   -1.0000      -2.347554       1.235053       0.734450      -0.061071       0.994238      -0.088099
      5   2   -1.0000       2.792032       2.252548      -1.117633      -0.016376      -0.929604       0.368196
ITEM: TIMESTEP
2200
ITEM: NUMBER OF ATOMS
5
ITEM: BOX BOUNDS ff ff ff
-5.00000000    5.00000000     
-5.00000000    5.00000000     
-5.00000000    5.00000000     
ITEM: ATOMS id type q x y z mux muy muz
      1   1    1.0000       0.893822      -2.097316       1.551166      -0.506788       0.839098      -0.197690
      2   2   -1.0000      -0.614103       0.632423      -1.925037      -0.880397      -0.053466       0.471213
      3   1    1.0000       2.720261       3.084598      -1.820175      -0.057611      -0.998151       0.019359
      4   2   -1.0000      -2.358102       1.213610       0.689060      -0.128553       0.991648      -0.010423
      5   2   -1.0000       2.831937       2.328495      -1.115891      -0.001557      -0.984515       0.175292
ITEM: TIMESTEP
2300
ITEM: NUMBER OF ATOMS
5
ITEM: BOX BOUNDS ff ff ff
-5.00000000    5.00000000     
-5.00000000    5.00000000     
-5.00000000    5.00000000     
ITEM: ATOMS id type q x y z mux muy muz
      1   1    1.0000       0.849656      -2.080222       1.566999      -0.496912       0.828357      -0.258657
      2   2   -1.0000      -0.610927       0.616787      -1.916550      -0.882490       0.033960       0.469104
      3   1    1.0000       2.731920       3.088431      -1.812047      -0.146814      -0.941438       0.303544
      4   2   -1.0000      -2.368149       1.191899       0.644795      -0.204546       0.976013       0.074557
      5   2   -1.0000       2.871315       2.344914      -1.104073       0.045398      -0.992408       0.114303
ITEM: TIMESTEP
2400
ITEM: NUMBER OF ATOMS
5
ITEM: BOX BOUNDS ff ff ff
-5.00000000    5.00000000     
-5.00000000    5.00000000     
-5.00000000    5.00000000     
ITEM: ATOMS id type q x y z mux muy muz
      1   1    1.0000       0.801531      -2.061083       1.583293      -0.489069       0.816963      -0.305586
      2   2   -1.0000      -0.606622       0.599841      -1.907153      -0.879621       0.100831       0.464865
      3   1    1.0000       2.746654       3.151259      -1.816377      -0.151854      -0.782612       0.603705
      4   2   -1.0000      -2.378567       1.168033       0.597824      -0.259503       0.956479       0.133436
      5   2   -1.0000       2.910819       2.303760      -1.078463       0.113361      -0.971249       0.209344
ITEM: TIMESTEP
2500
ITEM: NUMBER OF ATOMS
5
ITEM: BOX BOUNDS ff ff ff
-5.00000000    5.00000000     
-5.00000000    5.00000000     
-5.00000000    5.00000000     
ITEM: ATOMS id type q x y z mux muy muz
      1   1    1.0000       0.746029      -2.038480       1.601029      -0.483441       0.806187      -0.341097
      2   2   -1.0000      -0.600923       0.580315      -1.896093      -0.874951       0.150233       0.460315
      3   1    1.0000       2.778497       3.188353      -1.773017      -0.098617      -0.587431       0.803243
      4   2   -1.0000      -2.390060       1.140335       0.544987      -0.298337       0.938917       0.171551
      5   2   -1.0000       2.940272       2.291287      -1.097782       0.178412      -0.918022       0.354125
ITEM: TIMESTEP
2600
ITEM: NUMBER OF ATOMS
5
ITEM: BOX BOUNDS ff ff ff
-5.00000000    5.00000000     
-5.00000000    5.00000000     
-5.00000000    5.00000000     
ITEM: ATOMS id type q x y z mux muy muz
      1   1    1.0000       0.691952      -2.015972       1.617267      -0.478652       0.794036      -0.374699
      2   2   -1.0000      -0.594851       0.561207      -1.885046      -0.868707       0.195343       0.455180
      3   1    1.0000       2.821076       3.177735      -1.698135      -0.006237      -0.415991       0.909347
      4   2   -1.0000      -2.400793       1.113219       0.494774      -0.332508       0.921516       0.200614
      5   2   -1.0000       2.956430       2.325620      -1.149736       0.232154      -0.834187       0.500237
ITEM: TIMESTEP
2700
ITEM: NUMBER OF ATOMS
5
ITEM: BOX BOUNDS ff ff ff
-5.00000000    5.00000000     
-5.00000000    5.00000000     
-5.00000000    5.00000000     
ITEM: ATOMS id type q x y z mux muy muz
      1   1    1.0000       0.644413      -1.995722       1.630485      -0.472809       0.775692      -0.418035
      2   2   -1.0000      -0.589139       0.544227      -1.875023      -0.858158       0.251645       0.447481
      3   1    1.0000       2.850531       3.206606      -1.677164       0.132278      -0.331910       0.933991
      4   2   -1.0000      -2.409802       1.089284       0.451873      -0.373772       0.898544       0.230029
      5   2   -1.0000       2.977812       2.317414      -1.151047       0.266943      -0.732751       0.625953
ITEM: TIMESTEP
2800
ITEM: NUMBER OF ATOMS
5
ITEM: BOX BOUNDS ff ff ff
-5.00000000    5.00000000     
-5.00000000    5.00000000     
-5.00000000    5.00000000     
ITEM: ATOMS id type q x y z mux muy muz
      1   1    1.0000       0.596500      -1.974801       1.642623      -0.462500       0.741461      -0.486138
      2   2   -1.0000      -0.583067       0.526820      -1.864571      -0.835593       0.338307       0.432819
      3   1    1.0000       2.868694       3.255716      -1.698619       0.327785      -0.404087       0.853974
      4   2   -1.0000      -2.418456       1.065085       0.409988      -0.435426       0.859629       0.267286
      5   2   -1.0000       3.010145       2.288989      -1.110297       0.265018      -0.641046       0.720295
ITEM: TIMESTEP
2900
ITEM: NUMBER OF ATOMS
5
ITEM: BOX BOUNDS ff ff ff
-5.00000000    5.00000000     
-5.00000000    5.00000000     
-5.00000000    5.00000000     
ITEM: ATOMS id type q x y z mux muy muz
      1   1    1.0000       0.534992      -1.947327       1.656801      -0.449380       0.699394      -0.555793
      2   2   -1.0000      -0.574933       0.504042      -1.850765      -0.804422       0.425625       0.414426
      3   1    1.0000       2.889087       3.255650      -1.712783       0.466829      -0.578288       0.669069
      4   2   -1.0000      -2.429122       1.033975       0.357775      -0.496285       0.815232       0.298492
      5   2   -1.0000       3.053791       2.315469      -1.071904       0.217582      -0.615645       0.757390
ITEM: TIMESTEP
3000
ITEM: NUMBER OF ATOMS
5
ITEM: BOX BOUNDS ff ff ff
-5.00000000    5.00000000     
-5.00000000    5.00000000     
-5.00000000    5.00000000     
ITEM: ATOMS id type q x y z mux muy muz
      1   1    1.0000       0.475322      -1.920113       1.669299      -0.435776       0.657112      -0.615064
      2   2   -1.0000      -0.566671       0.481516      -1.837044      -0.771229       0.498284       0.396130
      3   1    1.0000       2.907179       3.200778      -1.702512       0.491135      -0.755084       0.434320
      4   2   -1.0000      -2.439107       1.003801       0.308490      -0.547053       0.773862       0.319173
      5   2   -1.0000       3.097091       2.395828      -1.059109       0.138407      -0.648089       0.748882
ITEM: TIMESTEP
3100
ITEM: NUMBER OF ATOMS
5
ITEM: BOX BOUNDS ff ff ff
-5.00000000    5.00000000     
-5.00000000    5.00000000     
-5.00000000    5.00000000     
ITEM: ATOMS id type q x y z mux muy muz
      1   1    1.0000       0.430317      -1.899075       1.677583      -0.421952       0.614722      -0.666388
      2   2   -1.0000      -0.559998       0.464132      -1.826403      -0.737829       0.558881       0.378497
      3   1    1.0000       2.908381       3.171333      -1.706481       0.409270      -0.883274       0.228746
      4   2   -1.0000      -2.446316       0.981092       0.272549      -0.591014       0.735388       0.331523
      5   2   -1.0000       3.141431       2.444327      -1.038124       0.046424      -0.698525       0.714078
ITEM: TIMESTEP
3200
ITEM: NUMBER OF ATOMS
5
ITEM: BOX BOUNDS ff ff ff
-5.00000000    5.00000000     
-5.00000000    5.00000000     
-5.00000000    5.00000000     
ITEM: ATOMS id type q x y z mux muy muz
      1   1    1.0000       0.380331      -1.875085       1.685408      -0.404451       0.562043      -0.721476
      2   2   -1.0000      -0.551956       0.444364      -1.814248      -0.697602       0.620755       0.357791
      3   1    1.0000       2.893275       3.195103      -1.743022       0.259428      -0.960732       0.098446
      4   2   -1.0000      -2.453940       0.955983       0.234111      -0.639213       0.690459       0.338635
      5   2   -1.0000       3.206106       2.441444      -0.983124      -0.038339      -0.733319       0.678803
ITEM: TIMESTEP
3300
ITEM: NUMBER OF ATOMS
5
ITEM: BOX BOUNDS ff ff ff
-5.00000000    5.00000000     
-5.00000000    5.00000000     
-5.00000000    5.00000000     
ITEM: ATOMS id type q x y z mux muy muz
      1   1    1.0000       0.322656      -1.846749       1.693020      -0.376236       0.481233      -0.791746
      2   2   -1.0000      -0.541964       0.421090      -1.799899      -0.638437       0.696407       0.327744
      3   1    1.0000       2.895017       3.203976      -1.741400       0.068880      -0.995686       0.062165
      4   2   -1.0000      -2.462361       0.927191       0.191270      -0.703403       0.624187       0.340021
      5   2   -1.0000       3.260466       2.456301      -0.963867      -0.096013      -0.739660       0.666096
ITEM: TIMESTEP
3400
ITEM: NUMBER OF ATOMS
5
ITEM: BOX BOUNDS ff ff ff
-5.00000000    5.00000000     
-5.00000000    5.00000000     
-5.00000000    5.00000000     
ITEM: ATOMS id type q x y z mux muy muz
      1   1    1.0000       0.254486      -1.812567       1.700551      -0.333282       0.367064      -0.868439
      2   2   -1.0000      -0.529380       0.393058      -1.782626      -0.558376       0.778292       0.287190
      3   1    1.0000       2.926061       3.194506      -1.693102      -0.097644      -0.982956       0.155765
      4   2   -1.0000      -2.471960       0.893437       0.142199      -0.779012       0.532131       0.331627
      5   2   -1.0000       3.294608       2.493375      -0.987897      -0.083244      -0.710517       0.698738
ITEM: TIMESTEP
3500
ITEM: NUMBER OF ATOMS
5
ITEM: BOX BOUNDS ff ff ff
-5.00000000    5.00000000     
-5.00000000    5.00000000     
-5.00000000    5.00000000     
ITEM: ATOMS id type q x y z mux muy muz
      1   1    1.0000       0.195040      -1.782136       1.705818      -0.283502       0.244176      -0.927365
      2   2   -1.0000      -0.517713       0.368043      -1.767311      -0.476654       0.844099       0.245556
      3   1    1.0000       2.966700       3.210670      -1.653335      -0.137437      -0.919720       0.367732
      4   2   -1.0000      -2.480075       0.864338       0.100820      -0.845480       0.432706       0.312937
      5   2   -1.0000       3.309861       2.500894      -1.006868       0.041251      -0.646097       0.762140
ITEM: TIMESTEP
3600
ITEM: NUMBER OF ATOMS
5
ITEM: BOX BOUNDS ff ff ff
-5.00000000    5.00000000     
-5.00000000    5.00000000     
-5.00000000    5.00000000     
ITEM: ATOMS id type q x y z mux muy muz
      1   1    1.0000       0.132219      -1.749247       1.709918      -0.242713       0.148893      -0.958604
      2   2   -1.0000      -0.504624       0.340806      -1.750876      -0.418319       0.882354       0.215547
      3   1    1.0000       3.012161       3.276765      -1.646875      -0.041917      -0.816750       0.575467
      4   2   -1.0000      -2.488451       0.834042       0.058714      -0.889219       0.353417       0.290493
      5   2   -1.0000       3.322509       2.459444      -0.991757       0.226306      -0.575667       0.785743
ITEM: TIMESTEP
3700
ITEM: NUMBER OF ATOMS
5
ITEM: BOX BOUNDS ff ff ff
-5.00000000    5.00000000     
-5.00000000    5.00000000     
-5.00000000    5.00000000     
ITEM: ATOMS id type q x y z mux muy muz
      1   1    1.0000       0.072511      -1.717233       1.712375      -0.210269       0.076115      -0.974676
      2   2   -1.0000      -0.491494       0.313975      -1.735044      -0.379403       0.904380       0.195320
      3   1    1.0000       3.075195       3.307368      -1.622454       0.103704      -0.697419       0.709121
      4   2   -1.0000      -2.496317       0.805725       0.020286      -0.919771       0.289122       0.265385
      5   2   -1.0000       3.313919       2.451974      -0.996038       0.398526      -0.533847       0.745778
ITEM: TIMESTEP
3800
ITEM: NUMBER OF ATOMS
5
ITEM: BOX BOUNDS ff ff ff
-5.00000000    5.00000000     
-5.00000000    5.00000000     
-5.00000000    5.00000000     
ITEM: ATOMS id type q x y z mux muy muz
      1   1    1.0000       0.012855      -1.684411       1.713311      -0.178848       0.008438      -0.983841
      2   2   -1.0000      -0.477694       0.286047      -1.719015      -0.349778       0.919434       0.179713
      3   1    1.0000       3.142658       3.301558      -1.587489       0.254989      -0.585938       0.769192
      4   2   -1.0000      -2.504159       0.777939      -0.016454      -0.946636       0.223610       0.232118
      5   2   -1.0000       3.300155       2.480676      -1.011229       0.529997      -0.552518       0.643294
ITEM: TIMESTEP
3900
ITEM: NUMBER OF ATOMS
5
ITEM: BOX BOUNDS ff ff ff
-5.00000000    5.00000000     
-5.00000000    5.00000000     
-5.00000000    5.00000000     
ITEM: ATOMS id type q x y z mux muy muz