ITEM: TIMESTEP
0
ITEM: NUMBER OF ATOMS
5
ITEM: BOX BOUNDS ff ff ff
-5.00000000    5.00000000     
-5.00000000    5.00000000     
-5.00000000    5.00000000     
ITEM: ATOMS id type q x y z mux muy muz
      1   1    1.0000       3.999233      -0.518439      -2.255922       0.125532      -0.981663       0.143453
      2   2   -1.0000      -1.067989      -1.121981      -2.131012       0.755171      -0.536411       0.376802
      3   1    1.0000      -2.314517       3.610492      -4.302080      -0.494910      -0.859560      -0.127365
      4   2   -1.0000       1.775679      -3.271759      -1.554958      -0.022120       0.564885       0.824873
      5   2   -1.0000      -4.384268      -2.300496       2.684656       0.039528       0.999165       0.010309
ITEM: TIMESTEP
100
ITEM: NUMBER OF ATOMS
5
ITEM: BOX BOUNDS ff ff ff
-5.00000000    5.00000000     
-5.00000000    5.00000000     
-5.00000000    5.00000000     
ITEM: ATOMS id type q x y z mux muy muz
      1   1    1.0000       4.012551      -0.523561      -2.260807       0.183541      -0.972596       0.142725
      2   2   -1.0000      -1.037326      -1.084034      -2.099291       0.681592      -0.657917       0.320278
      3   1    1.0000      -2.345809       3.596478      -4.371864      -0.608511      -0.793484      -0.009833
      4   2   -1.0000       1.732883      -3.267354      -1.556672      -0.037882       0.603437       0.796510
      5   2   -1.0000      -4.354162      -2.323710       2.729317       0.143585       0.989134       0.031567
ITEM: TIMESTEP
200
ITEM: NUMBER OF ATOMS
5
ITEM: BOX BOUNDS ff ff ff
-5.00000000    5.00000000     
-5.00000000    5.00000000     
-5.00000000    5.00000000     
ITEM: ATOMS id type q x y z mux muy muz
      1   1    1.0000       4.025076      -0.529446      -2.265746       0.239440      -0.960639       0.140860
      2   2   -1.0000      -1.006622      -1.045199      -2.067966       0.587753      -0.767181       0.256866
      3   1    1.0000      -2.377075       3.581817      -4.441512      -0.694351      -0.712413       0.101703
      4   2   -1.0000       1.690842      -3.262346      -1.558376      -0.064268       0.635168       0.769696
      5   2   -1.0000      -4.324083      -2.347009       2.774284       0.260157       0.964103       0.053131
ITEM: TIMESTEP
300
ITEM: NUMBER OF ATOMS
5
ITEM: BOX BOUNDS ff ff ff
-5.00000000    5.00000000     
-5.00000000    5.00000000     
-5.00000000    5.00000000     
ITEM: ATOMS id type q x y z mux muy muz
      1   1    1.0000       4.036809      -0.536047      -2.270723       0.291932      -0.946428       0.138020
      2   2   -1.0000      -0.975871      -1.005501      -2.037024       0.477757      -0.857857       0.189288
      3   1    1.0000      -2.408283       3.566533      -4.511007      -0.754209      -0.624241       0.203697
      4   2   -1.0000       1.649526      -3.256780      -1.560097      -0.100259       0.660013       0.744534
      5   2   -1.0000      -4.294044      -2.370387       2.819535       0.387382       0.918909       0.074449
ITEM: TIMESTEP
400
ITEM: NUMBER OF ATOMS
5
ITEM: BOX BOUNDS ff ff ff
-5.00000000    5.00000000     
-5.00000000    5.00000000     
-5.00000000    5.00000000     
ITEM: ATOMS id type q x y z mux muy muz
      1   1    1.0000       4.047743      -0.543330      -2.275720       0.339681      -0.930882       0.134447
      2   2   -1.0000      -0.945059      -0.964969      -2.006446       0.357795      -0.925926       0.121014
      3   1    1.0000      -2.439407       3.550651      -4.580335      -0.791488      -0.535717       0.294201
      4   2   -1.0000       1.608914      -3.250692      -1.561863      -0.144413       0.677898       0.720832
      5   2   -1.0000      -4.264053      -2.393841       2.865047       0.521435       0.848024       0.094666
ITEM: TIMESTEP
500
ITEM: NUMBER OF ATOMS
5
ITEM: BOX BOUNDS ff ff ff
-5.00000000    5.00000000     
-5.00000000    5.00000000     
-5.00000000    5.00000000     
ITEM: ATOMS id type q x y z mux muy muz
      1   1    1.0000       4.057868      -0.551265      -2.280716       0.381381      -0.915166       0.130462
      2   2   -1.0000      -0.914175      -0.923636      -1.976211       0.235096      -0.970377       0.055662
      3   1    1.0000      -2.470428       3.534199      -4.649487      -0.810434      -0.452069       0.372600
      4   2   -1.0000       1.568995      -3.244117      -1.563701      -0.194892       0.688823       0.698240
      5   2   -1.0000      -4.234121      -2.417363       2.910799       0.655988       0.746328       0.112582
ITEM: TIMESTEP
600
ITEM: NUMBER OF ATOMS
5
ITEM: BOX BOUNDS ff ff ff
-5.00000000    5.00000000     
-5.00000000    5.00000000     
-5.00000000    5.00000000     
ITEM: ATOMS id type q x y z mux muy muz
      1   1    1.0000       4.067165      -0.559829      -2.285692       0.415851      -0.900600       0.126443
      2   2   -1.0000      -0.883204      -0.881531      -1.946296       0.116632      -0.993168      -0.003644
      3   1    1.0000      -2.501334       3.517205      -4.718459      -0.815472      -0.376884       0.439276
      4   2   -1.0000       1.529764      -3.237080      -1.565642      -0.249552       0.692984       0.676386
      5   2   -1.0000      -4.204254      -2.440947       2.956772       0.781984       0.610289       0.126680
ITEM: TIMESTEP
700
ITEM: NUMBER OF ATOMS
5
ITEM: BOX BOUNDS ff ff ff
-5.00000000    5.00000000     
-5.00000000    5.00000000     
-5.00000000    5.00000000     
ITEM: ATOMS id type q x y z mux muy muz
      1   1    1.0000       4.075616      -0.569004      -2.290630       0.442146      -0.888498       0.122793
      2   2   -1.0000      -0.852132      -0.838687      -1.916680       0.007980      -0.998469      -0.054742
      3   1    1.0000      -2.532116       3.499699      -4.787246      -0.810708      -0.312192       0.495266
      4   2   -1.0000       1.491228      -3.229604      -1.567710      -0.306125       0.690854       0.654986
      5   2   -1.0000      -4.174459      -2.464585       3.002949       0.888059       0.439380       0.135266
ITEM: TIMESTEP
800
ITEM: NUMBER OF ATOMS
5
ITEM: BOX BOUNDS ff ff ff
-5.00000000    5.00000000     
-5.00000000    5.00000000     
-5.00000000    5.00000000     
ITEM: ATOMS id type q x y z mux muy muz
      1   1    1.0000       4.083198      -0.578775      -2.295511       0.459651      -0.879970       0.119893
      2   2   -1.0000      -0.820948      -0.795133      -1.887347      -0.087341      -0.991482      -0.096613
      3   1    1.0000      -2.562769       3.481705      -4.855846      -0.799601      -0.258688       0.541959
      4   2   -1.0000       1.453398      -3.221709      -1.569931      -0.362458       0.683216       0.633909
      5   2   -1.0000      -4.144741      -2.488271       3.049319       0.961765       0.237308       0.136721
ITEM: TIMESTEP
900
ITEM: NUMBER OF ATOMS
5
ITEM: BOX BOUNDS ff ff ff
-5.00000000    5.00000000     
-5.00000000    5.00000000     
-5.00000000    5.00000000     
ITEM: ATOMS id type q x y z mux muy muz
      1   1    1.0000       4.089885      -0.589129      -2.300317       0.468131      -0.875738       0.118058
      2   2   -1.0000      -0.789643      -0.750896      -1.858285      -0.167910      -0.977291      -0.129258
      3   1    1.0000      -2.593291       3.463247      -4.924259      -0.784818      -0.216052       0.580846
      4   2   -1.0000       1.416292      -3.213407      -1.572327      -0.416736       0.671083       0.613171
      5   2   -1.0000      -4.115105      -2.511997       3.095871       0.991459       0.012549       0.129815
ITEM: TIMESTEP
1000
ITEM: NUMBER OF ATOMS
5
ITEM: BOX BOUNDS ff ff ff
-5.00000000    5.00000000     
-5.00000000    5.00000000     
-5.00000000    5.00000000     
ITEM: ATOMS id type q x y z mux muy muz
      1   1    1.0000       4.095653      -0.600055      -2.305031       0.467715      -0.876034       0.117502
      2   2   -1.0000      -0.758210      -0.706003      -1.829487      -0.233980      -0.960065      -0.153388
      3   1    1.0000      -2.623682       3.444345      -4.992485      -0.768243      -0.183306       0.613353
      4   2   -1.0000       1.379930      -3.204711      -1.574916      -0.467627       0.655581       0.592906
      5   2   -1.0000      -4.085552      -2.535757       3.142603       0.968337      -0.222101       0.113991
ITEM: TIMESTEP
1100
ITEM: NUMBER OF ATOMS
5
ITEM: BOX BOUNDS ff ff ff
-5.00000000    5.00000000     
-5.00000000    5.00000000     
-5.00000000    5.00000000     
ITEM: ATOMS id type q x y z mux muy muz
      1   1    1.0000       4.100472      -0.611547      -2.309638       0.458837      -0.880606       0.118332
      2   2   -1.0000      -0.726648      -0.660474      -1.800955      -0.286847      -0.942759      -0.170073
      3   1    1.0000      -2.653940       3.425018      -4.939226      -0.751080      -0.159152       0.640742
      4   2   -1.0000       1.344340      -3.195631      -1.577717      -0.514308       0.637809       0.573312
      5   2   -1.0000      -4.056085      -2.559548       3.189514       0.888086      -0.450874       0.089537
ITEM: TIMESTEP
1200
ITEM: NUMBER OF ATOMS
5
ITEM: BOX BOUNDS ff ff ff
-5.00000000    5.00000000     
-5.00000000    5.00000000     
-5.00000000    5.00000000     
ITEM: ATOMS id type q x y z mux muy muz
      1   1    1.0000       4.104303      -0.623565      -2.314108       0.442163      -0.888798       0.120537
      2   2   -1.0000      -0.695046      -0.614438      -1.772766      -0.328240      -0.927192      -0.180480
      3   1    1.0000      -2.683977       3.405321      -4.870656      -0.733990      -0.142294       0.664087
      4   2   -1.0000       1.309641      -3.186199      -1.580735      -0.556402       0.618733       0.554604
      5   2   -1.0000      -4.026783      -2.583302       3.236482       0.751745      -0.656931       0.057622
ITEM: TIMESTEP
1300
ITEM: NUMBER OF ATOMS
5
ITEM: BOX BOUNDS ff ff ff
-5.00000000    5.00000000     
-5.00000000    5.00000000     
-5.00000000    5.00000000     
ITEM: ATOMS id type q x y z mux muy muz
      1   1    1.0000       4.107119      -0.636097      -2.318427       0.418512      -0.899703       0.124027
      2   2   -1.0000      -0.663428      -0.567917      -1.744938      -0.359956      -0.914302      -0.185699
      3   1    1.0000      -2.713769       3.385264      -4.801826      -0.717279      -0.131508       0.684263
      4   2   -1.0000       1.275874      -3.176426      -1.583983      -0.593870       0.599137       0.536985
      5   2   -1.0000      -3.997658      -2.607005       3.283493       0.565753      -0.824327       0.020183
ITEM: TIMESTEP
1400
ITEM: NUMBER OF ATOMS
5
ITEM: BOX BOUNDS ff ff ff
-5.00000000    5.00000000     
-5.00000000    5.00000000     
-5.00000000    5.00000000     
ITEM: ATOMS id type q x y z mux muy muz
      1   1    1.0000       4.108891      -0.649138      -2.322578       0.388788      -0.912301       0.128654
      2   2   -1.0000      -0.631809      -0.520917      -1.717483      -0.383661      -0.904411      -0.186671
      3   1    1.0000      -2.743302       3.364850      -4.732741      -0.701039      -0.125687       0.701960
      4   2   -1.0000       1.243069      -3.166321      -1.587472      -0.626904       0.579603       0.520626
      5   2   -1.0000      -3.968711      -2.630656       3.330549       0.341272      -0.939746      -0.020278
ITEM: TIMESTEP
1500
ITEM: NUMBER OF ATOMS
5
ITEM: BOX BOUNDS ff ff ff
-5.00000000    5.00000000     
-5.00000000    5.00000000     
-5.00000000    5.00000000     
ITEM: ATOMS id type q x y z mux muy muz
      1   1    1.0000       4.109592      -0.662682      -2.326548       0.353929      -0.925588       0.134245
      2   2   -1.0000      -0.600205      -0.473438      -1.690413      -0.400786      -0.897469      -0.184176
      3   1    1.0000      -2.772561       3.344083      -4.663405      -0.685237      -0.123877       0.717708
      4   2   -1.0000       1.211256      -3.155891      -1.591212      -0.655832       0.560526       0.505663
      5   2   -1.0000      -3.939945      -2.654254       3.377653       0.093015      -0.993798      -0.060947
ITEM: TIMESTEP
1600
ITEM: NUMBER OF ATOMS
5
ITEM: BOX BOUNDS ff ff ff
-5.00000000    5.00000000     
-5.00000000    5.00000000     
-5.00000000    5.00000000     
ITEM: ATOMS id type q x y z mux muy muz
      1   1    1.0000       4.109195      -0.676724      -2.330321       0.314867      -0.938662       0.140612
      2   2   -1.0000      -0.568635      -0.425482      -1.663741      -0.412512      -0.893222      -0.178852
      3   1    1.0000      -2.801527       3.322965      -4.593825      -0.669780      -0.125278       0.731916
      4   2   -1.0000       1.180466      -3.145143      -1.595216      -0.681055       0.542139       0.492189
      5   2   -1.0000      -3.911361      -2.677798       3.424807      -0.162185      -0.981786      -0.098955
ITEM: TIMESTEP
1700
ITEM: NUMBER OF ATOMS
5
ITEM: BOX BOUNDS ff ff ff
-5.00000000    5.00000000     
-5.00000000    5.00000000     
-5.00000000    5.00000000     
ITEM: ATOMS id type q x y z mux muy muz
      1   1    1.0000       4.107671      -0.691259      -2.333884       0.272488      -0.950775       0.147571
      2   2   -1.0000      -0.537118      -0.377051      -1.637479      -0.419790      -0.891324      -0.171223
      3   1    1.0000      -2.830181       3.301501      -4.524011      -0.654550      -0.129230       0.744892
      4   2   -1.0000       1.150726      -3.134083      -1.599493      -0.702996       0.524548       0.480256
      5   2   -1.0000      -3.882960      -2.701290       3.472012      -0.406854      -0.903961      -0.131624
ITEM: TIMESTEP
1800
ITEM: NUMBER OF ATOMS
5
ITEM: BOX BOUNDS ff ff ff
-5.00000000    5.00000000     
-5.00000000    5.00000000     
-5.00000000    5.00000000     
ITEM: ATOMS id type q x y z mux muy muz
      1   1    1.0000       4.104995      -0.706284      -2.337224       0.227615      -0.961344       0.154950
      2   2   -1.0000      -0.505675      -0.328146      -1.611637      -0.423372      -0.891403      -0.161728
      3   1    1.0000      -2.858503       3.279693      -4.453974      -0.639430      -0.135198       0.756869
      4   2   -1.0000       1.122065      -3.122715      -1.604055      -0.722076       0.507759       0.469879
      5   2   -1.0000      -3.854745      -2.724730       3.519265      -0.624268      -0.765341      -0.156661
ITEM: TIMESTEP
1900
ITEM: NUMBER OF ATOMS
5
ITEM: BOX BOUNDS ff ff ff
-5.00000000    5.00000000     
-5.00000000    5.00000000     
-5.00000000    5.00000000     
ITEM: ATOMS id type q x y z mux muy muz
      1   1    1.0000       4.101142      -0.721797      -2.340327       0.180986      -0.969953       0.162591
      2   2   -1.0000      -0.474325      -0.278771      -1.586223      -0.423855      -0.893098      -0.150745
      3   1    1.0000      -2.886472       3.257547      -4.383729      -0.624310      -0.142747       0.768024
      4   2   -1.0000       1.094508      -3.111041      -1.608909      -0.738698       0.491707       0.461031
      5   2   -1.0000      -3.826715      -2.748120       3.566563      -0.799652      -0.575206      -0.172319
ITEM: TIMESTEP
2000
ITEM: NUMBER OF ATOMS
5
ITEM: BOX BOUNDS ff ff ff
-5.00000000    5.00000000     
-5.00000000    5.00000000     
-5.00000000    5.00000000     
ITEM: ATOMS id type q x y z mux muy muz
      1   1    1.0000       4.096087      -0.737794      -2.343183       0.133257      -0.976331       0.170352
      2   2   -1.0000      -0.443091      -0.228933      -1.561240      -0.421715      -0.896072      -0.138606
      3   1    1.0000      -2.914065       3.235068      -4.313292      -0.609098      -0.151527       0.778486
      4   2   -1.0000       1.068078      -3.099060      -1.614064      -0.753233       0.476278       0.453650
      5   2   -1.0000      -3.798872      -2.771463       3.613897      -0.921165      -0.346339      -0.177497
ITEM: TIMESTEP
2100
ITEM: NUMBER OF ATOMS
5
ITEM: BOX BOUNDS ff ff ff
-5.00000000    5.00000000     
-5.00000000    5.00000000     
-5.00000000    5.00000000     
ITEM: ATOMS id type q x y z mux muy muz
      1   1    1.0000       4.089808      -0.754273      -2.345781       0.084988      -0.980334       0.178108
      2   2   -1.0000      -0.411991      -0.178641      -1.536691      -0.417342      -0.900027      -0.125609
      3   1    1.0000      -2.941262       3.212261      -4.242680      -0.593716      -0.161255       0.788352
      4   2   -1.0000       1.042797      -3.086771      -1.619525      -0.766021       0.461333       0.447642
      5   2   -1.0000      -3.771214      -2.794758       3.661257      -0.980627      -0.094099      -0.171805
ITEM: TIMESTEP
2200
ITEM: NUMBER OF ATOMS
5
ITEM: BOX BOUNDS ff ff ff
-5.00000000    5.00000000     
-5.00000000    5.00000000     
-5.00000000    5.00000000     
ITEM: ATOMS id type q x y z mux muy muz
      1   1    1.0000       4.082284      -0.771234      -2.348115       0.036656      -0.981913       0.185753
      2   2   -1.0000      -0.381046      -0.127907      -1.512574      -0.411059      -0.904700      -0.112023
      3   1    1.0000      -2.968041       3.189131      -4.171911      -0.578103      -0.171704       0.797693
      4   2   -1.0000       1.018682      -3.074166      -1.625298      -0.777366       0.446716       0.442884
      5   2   -1.0000      -3.743741      -2.818006       3.708632      -0.974012       0.164612      -0.155576
ITEM: TIMESTEP
2300
ITEM: NUMBER OF ATOMS
5
ITEM: BOX BOUNDS ff ff ff
-5.00000000    5.00000000     
-5.00000000    5.00000000     
-5.00000000    5.00000000     
ITEM: ATOMS id type q x y z mux muy muz
      1   1    1.0000       4.073495      -0.788674      -2.350176      -0.011347      -0.981095       0.193192
      2   2   -1.0000      -0.350274      -0.076749      -1.488886      -0.403144      -0.909864      -0.098089
      3   1    1.0000      -2.994381       3.165686      -4.101004      -0.562208      -0.182692       0.806564
      4   2   -1.0000       0.995751      -3.061239      -1.631383      -0.787539       0.432275       0.439228
      5   2   -1.0000      -3.716453      -2.841206       3.756005      -0.901679       0.412451      -0.129845
ITEM: TIMESTEP
2400
ITEM: NUMBER OF ATOMS
5
ITEM: BOX BOUNDS ff ff ff
-5.00000000    5.00000000     
-5.00000000    5.00000000     
-5.00000000    5.00000000     
ITEM: ATOMS id type q x y z mux muy muz
      1   1    1.0000       4.063423      -0.806592      -2.351960      -0.058700      -0.977965       0.200347
      2   2   -1.0000      -0.319693      -0.025186      -1.465622      -0.393846      -0.915329      -0.084019
      3   1    1.0000      -3.020263       3.141931      -4.029976      -0.545993      -0.194070       0.815002
      4   2   -1.0000       0.974019      -3.047980      -1.637780      -0.796774       0.417864       0.436511
      5   2   -1.0000      -3.689347      -2.864355       3.803361      -0.768350       0.632747      -0.096276
ITEM: TIMESTEP
2500
ITEM: NUMBER OF ATOMS
5
ITEM: BOX BOUNDS ff ff ff
-5.00000000    5.00000000     
-5.00000000    5.00000000     
-5.00000000    5.00000000     
ITEM: ATOMS id type q x y z mux muy muz
      1   1    1.0000       4.052049      -0.824988      -2.353463      -0.105154      -0.972641       0.207153
      2   2   -1.0000      -0.289321       0.026758      -1.442777      -0.383385      -0.920933      -0.069990
      3   1    1.0000      -3.045667       3.117872      -3.958845      -0.529425      -0.205719       0.823036
      4   2   -1.0000       0.953500      -3.034375      -1.644487      -0.805274       0.403353       0.434557
      5   2   -1.0000      -3.662423      -2.887449       3.850682      -0.582833       0.810586      -0.057063
ITEM: TIMESTEP
2600
ITEM: NUMBER OF ATOMS
5
ITEM: BOX BOUNDS ff ff ff
-5.00000000    5.00000000     
-5.00000000    5.00000000     
-5.00000000    5.00000000     
ITEM: ATOMS id type q x y z mux muy muz
      1   1    1.0000       4.039357      -0.843862      -2.354684      -0.150515      -0.965266       0.213558
      2   2   -1.0000      -0.259174       0.079057      -1.420345      -0.371965      -0.926547      -0.056149
      3   1    1.0000      -3.070574       3.093517      -3.887629      -0.512477      -0.217541       0.830688
      4   2   -1.0000       0.934210      -3.020410      -1.651499      -0.813210       0.388632       0.433192
      5   2   -1.0000      -3.635680      -2.910485       3.897948      -0.357484       0.933802      -0.014793
ITEM: TIMESTEP
2700
ITEM: NUMBER OF ATOMS
5
ITEM: BOX BOUNDS ff ff ff
-5.00000000    5.00000000     
-5.00000000    5.00000000     
-5.00000000    5.00000000     
ITEM: ATOMS id type q x y z mux muy muz
      1   1    1.0000       4.025328      -0.863212      -2.355622      -0.194640      -0.955995       0.219520
      2   2   -1.0000      -0.229268       0.131682      -1.398320      -0.359774      -0.932066      -0.042605
      3   1    1.0000      -3.094967       3.068873      -3.816343      -0.495125      -0.229453       0.837975
      4   2   -1.0000       0.916162      -3.006071      -1.658811      -0.820720       0.373614       0.432240
      5   2   -1.0000      -3.609118      -2.933454       3.945140      -0.107438       0.993825       0.027723
ITEM: TIMESTEP
2800
ITEM: NUMBER OF ATOMS
5
ITEM: BOX BOUNDS ff ff ff
-5.00000000    5.00000000     
-5.00000000    5.00000000     
-5.00000000    5.00000000     
ITEM: ATOMS id type q x y z mux muy muz
      1   1    1.0000       4.009946      -0.883040      -2.356276      -0.237429      -0.944985       0.225012
      2   2   -1.0000      -0.199618       0.184603      -1.376697      -0.346982      -0.937410      -0.029432
      3   1    1.0000      -3.118827       3.043946      -3.745002      -0.477346      -0.241389       0.844910
      4   2   -1.0000       0.899373      -2.991339      -1.666414      -0.827915       0.358231       0.431540
      5   2   -1.0000      -3.582736      -2.956351       3.992240       0.150371       0.986313       0.067636
ITEM: TIMESTEP
2900
ITEM: NUMBER OF ATOMS
5
ITEM: BOX BOUNDS ff ff ff
-5.00000000    5.00000000     
-5.00000000    5.00000000     
-5.00000000    5.00000000     
ITEM: ATOMS id type q x y z mux muy muz
      1   1    1.0000       3.993191      -0.903346      -2.356646      -0.278815      -0.932392       0.230016
      2   2   -1.0000      -0.170240       0.237784      -1.355474      -0.333739      -0.942518      -0.016667
      3   1    1.0000      -3.142137       3.018746      -3.673620      -0.459119      -0.253287       0.851502
      4   2   -1.0000       0.883860      -2.976198      -1.674300      -0.834881       0.342437       0.430942
      5   2   -1.0000      -3.556536      -2.979168       4.039228       0.398349       0.911517       0.102250
ITEM: TIMESTEP
3000
ITEM: NUMBER OF ATOMS
5
ITEM: BOX BOUNDS ff ff ff
-5.00000000    5.00000000     
-5.00000000    5.00000000     
-5.00000000    5.00000000     
ITEM: ATOMS id type q x y z mux muy muz
      1   1    1.0000       3.975045      -0.924132      -2.356733      -0.318758      -0.918364       0.234521
      2   2   -1.0000      -0.141152       0.291193      -1.334649      -0.320180      -0.947347      -0.004320
      3   1    1.0000      -3.164879       2.993282      -3.602211      -0.440423      -0.265093       0.857761
      4   2   -1.0000       0.869643      -2.960630      -1.682461      -0.841675       0.326205       0.430318
      5   2   -1.0000      -3.530519      -3.001895       4.086086       0.619450       0.774328       0.129217
ITEM: TIMESTEP
3100
ITEM: NUMBER OF ATOMS
5
ITEM: BOX BOUNDS ff ff ff
-5.00000000    5.00000000     
-5.00000000    5.00000000     
-5.00000000    5.00000000     
ITEM: ATOMS id type q x y z mux muy muz
      1   1    1.0000       3.955486      -0.945400      -2.356536      -0.357238      -0.903042       0.238529
      2   2   -1.0000      -0.112369       0.344793      -1.314223      -0.306414      -0.951868       0.007631
      3   1    1.0000      -3.187035       2.967563      -3.530788      -0.421236      -0.276759       0.863693
      4   2   -1.0000       0.856746      -2.944614      -1.690890      -0.848336       0.309521       0.429561
      5   2   -1.0000      -3.504689      -3.024524       4.132795       0.798389       0.583998       0.146701
ITEM: TIMESTEP
3200
ITEM: NUMBER OF ATOMS
5
ITEM: BOX BOUNDS ff ff ff
-5.00000000    5.00000000     
-5.00000000    5.00000000     
-5.00000000    5.00000000     
ITEM: ATOMS id type q x y z mux muy muz
      1   1    1.0000       3.934493      -0.967152      -2.356055      -0.394249      -0.886556       0.242046
      2   2   -1.0000      -0.083913       0.398547      -1.294199      -0.292530      -0.956063       0.019226
      3   1    1.0000      -3.208587       2.941601      -3.459367      -0.401539      -0.288236       0.869302
      4   2   -1.0000       0.845194      -2.928133      -1.699580      -0.854882       0.292383       0.428589
      5   2   -1.0000      -3.479049      -3.047045       4.179339       0.922743       0.353520       0.153519
ITEM: TIMESTEP
3300
ITEM: NUMBER OF ATOMS
5
ITEM: BOX BOUNDS ff ff ff
-5.00000000    5.00000000     
-5.00000000    5.00000000     
-5.00000000    5.00000000     
ITEM: ATOMS id type q x y z mux muy muz
      1   1    1.0000       3.912041      -0.989394      -2.355289      -0.429792      -0.869029       0.245086
      2   2   -1.0000      -0.055804       0.452418      -1.274579      -0.278594      -0.959924       0.030520
      3   1    1.0000      -3.229514       2.915410      -3.387962      -0.381313      -0.299480       0.874593
      4   2   -1.0000       0.835020      -2.911164      -1.708524      -0.861316       0.274798       0.427342
      5   2   -1.0000      -3.453604      -3.069451       4.225700       0.983861       0.098735       0.149225
ITEM: TIMESTEP
3400
ITEM: NUMBER OF ATOMS
5
ITEM: BOX BOUNDS ff ff ff
-5.00000000    5.00000000     
-5.00000000    5.00000000     
-5.00000000    5.00000000     
ITEM: ATOMS id type q x y z mux muy muz
      1   1    1.0000       3.888103      -1.012133      -2.354235      -0.463874      -0.850578       0.247665
      2   2   -1.0000      -0.028067       0.506367      -1.255369      -0.264645      -0.963449       0.041575
      3   1    1.0000      -3.249796       2.889003      -3.316591      -0.360542      -0.310445       0.879564
      4   2   -1.0000       0.826258      -2.893687      -1.717717      -0.867627       0.256775       0.425782
      5   2   -1.0000      -3.428360      -3.091731       4.271864       0.977497      -0.162798       0.134151
ITEM: TIMESTEP
3500
ITEM: NUMBER OF ATOMS
5
ITEM: BOX BOUNDS ff ff ff
-5.00000000    5.00000000     
-5.00000000    5.00000000     
-5.00000000    5.00000000     
ITEM: ATOMS id type q x y z mux muy muz
      1   1    1.0000       3.862651      -1.035375      -2.352889      -0.496504      -0.831314       0.249804
      2   2   -1.0000      -0.000727       0.560353      -1.236574      -0.250703      -0.966642       0.052454
      3   1    1.0000      -3.269412       2.862397      -3.245275      -0.339214      -0.321087       0.884215
      4   2   -1.0000       0.818949      -2.875680      -1.727159      -0.873795       0.238325       0.423892
      5   2   -1.0000      -3.403323      -3.113877       4.317812       0.904116      -0.413050       0.109378
ITEM: TIMESTEP
3600
ITEM: NUMBER OF ATOMS
5
ITEM: BOX BOUNDS ff ff ff
-5.00000000    5.00000000     
-5.00000000    5.00000000     
-5.00000000    5.00000000     
ITEM: ATOMS id type q x y z mux muy muz
      1   1    1.0000       3.835654      -1.059133      -2.351248      -0.527688      -0.811346       0.251521
      2   2   -1.0000       0.026186       0.614337      -1.218200      -0.236765      -0.969508       0.063212
      3   1    1.0000      -3.288338       2.835612      -3.174038      -0.317322      -0.331363       0.888541
      4   2   -1.0000       0.813137      -2.857118      -1.736845      -0.879794       0.219457       0.421666
      5   2   -1.0000      -3.378501      -3.135881       4.363528       0.768851      -0.634815       0.076662
ITEM: TIMESTEP
3700
ITEM: NUMBER OF ATOMS
5
ITEM: BOX BOUNDS ff ff ff
-5.00000000    5.00000000     
-5.00000000    5.00000000     
-5.00000000    5.00000000     
ITEM: ATOMS id type q x y z mux muy muz
      1   1    1.0000       3.807077      -1.083418      -2.349306      -0.557433      -0.790785       0.252838
      2   2   -1.0000       0.052639       0.668276      -1.200252      -0.222811      -0.972057       0.073895
      3   1    1.0000      -3.306551       2.808669      -3.102910      -0.294863      -0.341233       0.892533
      4   2   -1.0000       0.808876      -2.837975      -1.746778      -0.885594       0.200173       0.419111
      5   2   -1.0000      -3.353902      -3.157734       4.408995       0.581113      -0.812921       0.038302
ITEM: TIMESTEP
3800
ITEM: NUMBER OF ATOMS
5
ITEM: BOX BOUNDS ff ff ff
-5.00000000    5.00000000     
-5.00000000    5.00000000     
-5.00000000    5.00000000     
ITEM: ATOMS id type q x y z mux muy muz
      1   1    1.0000       3.776882      -1.108248      -2.347059      -0.585746      -0.769742       0.253770
      2   2   -1.0000       0.078596       0.722124      -1.182735      -0.208803      -0.974298       0.084531
      3   1    1.0000      -3.324026       2.781593      -3.031923      -0.271843      -0.350655       0.896182
      4   2   -1.0000       0.806222      -2.818223      -1.756958      -0.891166       0.180471       0.416237
      5   2   -1.0000      -3.329536      -3.179428       4.454194       0.353893      -0.935281      -0.003022
ITEM: TIMESTEP
3900
ITEM: NUMBER OF ATOMS
5
ITEM: BOX BOUNDS ff ff ff
-5.00000000    5.00000000     
-5.00000000    5.00000000     
-5.00000000    5.00000000     
ITEM: ATOMS id type q x y z mux muy muz