ITEM: TIMESTEP
0
ITEM: NUMBER OF ATOMS
5
ITEM: BOX BOUNDS ff ff ff
-5.00000000    5.00000000     
-5.00000000    5.00000000     
-5.00000000    5.00000000     
ITEM: ATOMS id type q x y z mux muy muz
      1   1    1.0000       1.822296      -0.603229       4.836034       0.823924       0.281021       0.492114
      2   2   -1.0000       0.690734      -2.972445      -2.072601       0.430883       0.777274       0.458460
      3   1    1.0000       1.935499       4.247638      -3.212317      -0.073267      -0.403899      -0.911865
      4   2   -1.0000      -4.176758       3.814814       4.152793       0.483841       0.612431      -0.625161
      5   2   -1.0000      -2.236324      -1.226908       1.602064      -0.622420       0.609495       0.491030
ITEM: TIMESTEP
100
ITEM: NUMBER OF ATOMS
5
ITEM: BOX BOUNDS ff ff ff
-5.00000000    5.00000000     
-5.00000000    5.00000000     
-5.00000000    5.00000000     
ITEM: ATOMS id type q x y z mux muy muz
      1   1    1.0000       1.868592      -0.587712       4.841016       0.786626       0.298623       0.540412
      2   2   -1.0000       0.691061      -2.986147      -2.145757       0.246478       0.876468       0.413585
      3   1    1.0000       1.922907       4.271735      -3.164073      -0.074409      -0.397871      -0.914419
      4   2   -1.0000      -4.199069       3.765268       4.154148       0.415285       0.647009      -0.639467
      5   2   -1.0000      -2.248044      -1.203273       1.620639      -0.641699       0.613761       0.459913
ITEM: TIMESTEP
200
ITEM: NUMBER OF ATOMS
5
ITEM: BOX BOUNDS ff ff ff
-5.00000000    5.00000000     
-5.00000000    5.00000000     
-5.00000000    5.00000000     
ITEM: ATOMS id type q x y z mux muy muz
      1   1    1.0000       1.914521      -0.572287       4.845808       0.738378       0.318524       0.594424
      2   2   -1.0000       0.691658      -2.999902      -2.219164       0.055563       0.932698       0.356353
      3   1    1.0000       1.910180       4.295600      -3.115768      -0.077246      -0.393349      -0.916138
      4   2   -1.0000      -4.221303       3.715887       4.155607       0.330183       0.681847      -0.652736
      5   2   -1.0000      -2.259611      -1.179427       1.639490      -0.664233       0.616565       0.422660
ITEM: TIMESTEP
300
ITEM: NUMBER OF ATOMS
5
ITEM: BOX BOUNDS ff ff ff
-5.00000000    5.00000000     
-5.00000000    5.00000000     
-5.00000000    5.00000000     
ITEM: ATOMS id type q x y z mux muy muz
      1   1    1.0000       1.960101      -0.556949       4.850407       0.676465       0.340188       0.653198
      2   2   -1.0000       0.692513      -3.013703      -2.292804      -0.129970       0.947633       0.291719
      3   1    1.0000       1.897322       4.319240      -3.067388      -0.081765      -0.390570      -0.916935
      4   2   -1.0000      -4.243465       3.666663       4.157172       0.226351       0.714095      -0.662445
      5   2   -1.0000      -2.271025      -1.155380       1.658586      -0.689184       0.617252       0.379506
ITEM: TIMESTEP
400
ITEM: NUMBER OF ATOMS
5
ITEM: BOX BOUNDS ff ff ff
-5.00000000    5.00000000     
-5.00000000    5.00000000     
-5.00000000    5.00000000     
ITEM: ATOMS id type q x y z mux muy muz
      1   1    1.0000       2.005341      -0.541694       4.854808       0.598262       0.362566       0.714582
      2   2   -1.0000       0.693617      -3.027540      -2.366664      -0.300113       0.926991       0.224989
      3   1    1.0000       1.884334       4.342660      -3.018920      -0.087848      -0.389708      -0.916739
      4   2   -1.0000      -4.265560       3.617589       4.158848       0.102810       0.739600      -0.665148
      5   2   -1.0000      -2.282285      -1.131144       1.677901      -0.715351       0.615256       0.331260
ITEM: TIMESTEP
500
ITEM: NUMBER OF ATOMS
5
ITEM: BOX BOUNDS ff ff ff
-5.00000000    5.00000000     
-5.00000000    5.00000000     
-5.00000000    5.00000000     
ITEM: ATOMS id type q x y z mux muy muz
      1   1    1.0000       2.050248      -0.526517       4.859005       0.501864       0.384024       0.775021
      2   2   -1.0000       0.694964      -3.041399      -2.440739      -0.448031       0.879398       0.161019
      3   1    1.0000       1.871220       4.365861      -2.970353      -0.095266      -0.390837      -0.915517
      4   2   -1.0000      -4.287591       3.568660       4.160640      -0.039232       0.753103      -0.656731
      5   2   -1.0000      -2.293394      -1.106734       1.697420      -0.741311       0.610249       0.279382
ITEM: TIMESTEP
600
ITEM: NUMBER OF ATOMS
5
ITEM: BOX BOUNDS ff ff ff
-5.00000000    5.00000000     
-5.00000000    5.00000000     
-5.00000000    5.00000000     
ITEM: ATOMS id type q x y z mux muy muz
      1   1    1.0000       2.094826      -0.511415       4.862985       0.386714       0.402458       0.829747
      2   2   -1.0000       0.696550      -3.055268      -2.515024      -0.570750       0.814579       0.103465
      3   1    1.0000       1.857981       4.388842      -2.921677      -0.103710      -0.393903      -0.913283
      4   2   -1.0000      -4.309561       3.519878       4.162552      -0.195725       0.748943      -0.633069
      5   2   -1.0000      -2.304349      -1.082167       1.717137      -0.765695       0.602265       0.225805
ITEM: TIMESTEP
700
ITEM: NUMBER OF ATOMS
5
ITEM: BOX BOUNDS ff ff ff
-5.00000000    5.00000000     
-5.00000000    5.00000000     
-5.00000000    5.00000000     
ITEM: ATOMS id type q x y z mux muy muz
      1   1    1.0000       2.139069      -0.496381       4.866735       0.254015       0.415558       0.873377
      2   2   -1.0000       0.698372      -3.069134      -2.589523      -0.668799       0.741450       0.054403
      3   1    1.0000       1.844619       4.411601      -2.872881      -0.112844      -0.398737      -0.910096
      4   2   -1.0000      -4.331470       3.471243       4.164590      -0.359829       0.722094      -0.590850
      5   2   -1.0000      -2.315144      -1.057458       1.737051      -0.787466       0.591706       0.172572
ITEM: TIMESTEP
800
ITEM: NUMBER OF ATOMS
5
ITEM: BOX BOUNDS ff ff ff
-5.00000000    5.00000000     
-5.00000000    5.00000000     
-5.00000000    5.00000000     
ITEM: ATOMS id type q x y z mux muy muz
      1   1    1.0000       2.182973      -0.481412       4.870238       0.106744       0.421153       0.900686
      2   2   -1.0000       0.700425      -3.082985      -2.664237      -0.745049       0.666853       0.014446
      3   1    1.0000       1.831135       4.434136      -2.823959      -0.122368      -0.405098      -0.906047
      4   2   -1.0000      -4.353318       3.422758       4.166761      -0.522682       0.669128      -0.528273
      5   2   -1.0000      -2.325767      -1.032626       1.757169      -0.806066       0.579229       0.121452
ITEM: TIMESTEP
900
ITEM: NUMBER OF ATOMS
5
ITEM: BOX BOUNDS ff ff ff
-5.00000000    5.00000000     
-5.00000000    5.00000000     
-5.00000000    5.00000000     
ITEM: ATOMS id type q x y z mux muy muz
      1   1    1.0000       2.226525      -0.466502       4.873477      -0.050631       0.417484       0.907273
      2   2   -1.0000       0.702703      -3.096811      -2.739171      -0.803375       0.595236      -0.016835
      3   1    1.0000       1.817527       4.456444      -2.774901      -0.132051      -0.412725      -0.901233
      4   2   -1.0000      -4.375106       3.374427       4.169067      -0.674539       0.588766      -0.445367
      5   2   -1.0000      -2.336203      -1.007688       1.777501      -0.821389       0.565585       0.073707
ITEM: TIMESTEP
1000
ITEM: NUMBER OF ATOMS
5
ITEM: BOX BOUNDS ff ff ff
-5.00000000    5.00000000     
-5.00000000    5.00000000     
-5.00000000    5.00000000     
ITEM: ATOMS id type q x y z mux muy muz
      1   1    1.0000       2.269712      -0.451646       4.876432      -0.212577       0.403377       0.889999
      2   2   -1.0000       0.705199      -3.110603      -2.814330      -0.847657       0.529002      -0.040427
      3   1    1.0000       1.803796       4.478525      -2.725700      -0.141740      -0.421370      -0.895744
      4   2   -1.0000      -4.396832       3.326253       4.171512      -0.805846       0.481983      -0.343954
      5   2   -1.0000      -2.346428      -0.982658       1.798059      -0.833652       0.551472       0.030051
ITEM: TIMESTEP
1100
ITEM: NUMBER OF ATOMS
5
ITEM: BOX BOUNDS ff ff ff
-5.00000000    5.00000000     
-5.00000000    5.00000000     
-5.00000000    5.00000000     
ITEM: ATOMS id type q x y z mux muy muz
      1   1    1.0000       2.312518      -0.436841       4.879083      -0.372938       0.378331       0.847221
      2   2   -1.0000       0.707905      -3.124351      -2.889716      -0.881261       0.469118      -0.057507
      3   1    1.0000       1.789939       4.500377      -2.676349      -0.151346      -0.430816      -0.889658
      4   2   -1.0000      -4.418498       3.278238       4.174097      -0.908037       0.351799      -0.227389
      5   2   -1.0000      -2.356417      -0.957553       1.818858      -0.843240       0.537457      -0.009258
ITEM: TIMESTEP
1200
ITEM: NUMBER OF ATOMS
5
ITEM: BOX BOUNDS ff ff ff
-5.00000000    5.00000000     
-5.00000000    5.00000000     
-5.00000000    5.00000000     
ITEM: ATOMS id type q x y z mux muy muz
      1   1    1.0000       2.354924      -0.422081       4.881413      -0.525367       0.342538       0.778882
      2   2   -1.0000       0.710813      -3.138050      -2.965332      -0.906877       0.415670      -0.069227
      3   1    1.0000       1.775954       4.522003      -2.626842      -0.160833      -0.440879      -0.883039
      4   2   -1.0000      -4.440105       3.230385       4.176818      -0.974051       0.202930      -0.100218
      5   2   -1.0000      -2.366139      -0.932385       1.839916      -0.850595       0.523954      -0.044283
ITEM: TIMESTEP
1300
ITEM: NUMBER OF ATOMS
5
ITEM: BOX BOUNDS ff ff ff
-5.00000000    5.00000000     
-5.00000000    5.00000000     
-5.00000000    5.00000000     
ITEM: ATOMS id type q x y z mux muy muz
      1   1    1.0000       2.396912      -0.407364       4.883404      -0.663758       0.296864       0.686511
      2   2   -1.0000       0.713915      -3.151693      -3.041180      -0.926554       0.368275      -0.076620
      3   1    1.0000       1.761836       4.543402      -2.577172      -0.170193      -0.451406      -0.875938
      4   2   -1.0000      -4.461654       3.182692       4.179672      -0.998624       0.041418       0.032164
      5   2   -1.0000      -2.375562      -0.907166       1.861248      -0.856142       0.511227      -0.075285
ITEM: TIMESTEP
1400
ITEM: NUMBER OF ATOMS
5
ITEM: BOX BOUNDS ff ff ff
-5.00000000    5.00000000     
-5.00000000    5.00000000     
-5.00000000    5.00000000     
ITEM: ATOMS id type q x y z mux muy muz
      1   1    1.0000       2.438463      -0.392687       4.885046      -0.782683       0.242793       0.573113
      2   2   -1.0000       0.717204      -3.165275      -3.117259      -0.941814       0.326336      -0.080563
      3   1    1.0000       1.747583       4.564579      -2.527334      -0.179438      -0.462266      -0.868396
      4   2   -1.0000      -4.483151       3.135159       4.182650      -0.978449      -0.125720       0.163807
      5   2   -1.0000      -2.384653      -0.881905       1.882870      -0.860259       0.499423      -0.102627
ITEM: TIMESTEP
1500
ITEM: NUMBER OF ATOMS
5
ITEM: BOX BOUNDS ff ff ff
-5.00000000    5.00000000     
-5.00000000    5.00000000     
-5.00000000    5.00000000     
ITEM: ATOMS id type q x y z mux muy muz
      1   1    1.0000       2.479562      -0.378050       4.886328      -0.877806       0.182315       0.442964
      2   2   -1.0000       0.720673      -3.178790      -3.193566      -0.953769       0.289197      -0.081788
      3   1    1.0000       1.733189       4.585537      -2.477326      -0.188591      -0.473343      -0.860453
      4   2   -1.0000      -4.504601       3.087784       4.185742      -0.912264      -0.290795       0.288465
      5   2   -1.0000      -2.393376      -0.856610       1.904796      -0.863266       0.488588      -0.126702
ITEM: TIMESTEP
1600
ITEM: NUMBER OF ATOMS
5
ITEM: BOX BOUNDS ff ff ff
-5.00000000    5.00000000     
-5.00000000    5.00000000     
-5.00000000    5.00000000     
ITEM: ATOMS id type q x y z mux muy muz
      1   1    1.0000       2.520191      -0.363454       4.887246      -0.946233       0.117781       0.301282
      2   2   -1.0000       0.724315      -3.192233      -3.270099      -0.963227       0.256222      -0.080896
      3   1    1.0000       1.718650       4.606279      -2.427147      -0.197675      -0.484533      -0.852146
      4   2   -1.0000      -4.526009       3.040563       4.188933      -0.800933      -0.445704       0.399817
      5   2   -1.0000      -2.401700      -0.831285       1.927039      -0.865432       0.478699      -0.147900
ITEM: TIMESTEP
1700
ITEM: NUMBER OF ATOMS
5
ITEM: BOX BOUNDS ff ff ff
-5.00000000    5.00000000     
-5.00000000    5.00000000     
-5.00000000    5.00000000     
ITEM: ATOMS id type q x y z mux muy muz
      1   1    1.0000       2.560340      -0.348901       4.887802      -0.986746       0.051710       0.153814
      2   2   -1.0000       0.728124      -3.205600      -3.346851      -0.970775       0.226832      -0.078376
      3   1    1.0000       1.703961       4.626810      -2.376796      -0.206709      -0.495742      -0.843512
      4   2   -1.0000      -4.547384       2.993494       4.192210      -0.647539      -0.582191       0.491678
      5   2   -1.0000      -2.409594      -0.805931       1.949609      -0.866979       0.469680      -0.166577
ITEM: TIMESTEP
1800
ITEM: NUMBER OF ATOMS
5
ITEM: BOX BOUNDS ff ff ff
-5.00000000    5.00000000     
-5.00000000    5.00000000     
-5.00000000    5.00000000     
ITEM: ATOMS id type q x y z mux muy muz
      1   1    1.0000       2.599997      -0.334395       4.887999      -0.999890      -0.013419       0.006358
      2   2   -1.0000       0.732095      -3.218888      -3.423816      -0.976842       0.200525      -0.074632
      3   1    1.0000       1.689119       4.647133      -2.326277      -0.215706      -0.506876      -0.834594
      4   2   -1.0000      -4.568735       2.946569       4.195556      -0.457516      -0.692128       0.558246
      5   2   -1.0000      -2.417029      -0.780548       1.972511      -0.868096       0.461416      -0.183044
ITEM: TIMESTEP
1900
ITEM: NUMBER OF ATOMS
5
ITEM: BOX BOUNDS ff ff ff
-5.00000000    5.00000000     
-5.00000000    5.00000000     
-5.00000000    5.00000000     
ITEM: ATOMS id type q x y z mux muy muz
      1   1    1.0000       2.639156      -0.319943       4.887846      -0.987878      -0.075366      -0.135711
      2   2   -1.0000       0.736223      -3.232090      -3.500985      -0.981742       0.176871      -0.069994
      3   1    1.0000       1.674118       4.667252      -2.275593      -0.224670      -0.517848      -0.825443
      4   2   -1.0000      -4.590070       2.899784       4.198957      -0.238783      -0.767894       0.594409
      5   2   -1.0000      -2.423980      -0.755132       1.995748      -0.868946       0.453764      -0.197562
ITEM: TIMESTEP
2000
ITEM: NUMBER OF ATOMS
5
ITEM: BOX BOUNDS ff ff ff
-5.00000000    5.00000000     
-5.00000000    5.00000000     
-5.00000000    5.00000000     
ITEM: ATOMS id type q x y z mux muy muz
      1   1    1.0000       2.677812      -0.305551       4.887357      -0.954328      -0.132310      -0.267866
      2   2   -1.0000       0.740505      -3.245204      -3.578349      -0.985711       0.155511      -0.064735
      3   1    1.0000       1.658955       4.687172      -2.224752      -0.233591      -0.528575      -0.816115
      4   2   -1.0000      -4.611400       2.853129       4.202396      -0.001821      -0.802871       0.596150
      5   2   -1.0000      -2.430425      -0.729675       2.019320      -0.869678       0.446563      -0.210336
ITEM: TIMESTEP
2100
ITEM: NUMBER OF ATOMS
5
ITEM: BOX BOUNDS ff ff ff
-5.00000000    5.00000000     
-5.00000000    5.00000000     
-5.00000000    5.00000000     
ITEM: ATOMS id type q x y z mux muy muz
      1   1    1.0000       2.715965      -0.291225       4.886547      -0.903859      -0.182963      -0.386735
      2   2   -1.0000       0.744936      -3.258226      -3.655896      -0.988925       0.136149      -0.059080
      3   1    1.0000       1.643627       4.706894      -2.173760      -0.242448      -0.538975      -0.806675
      4   2   -1.0000      -4.632735       2.806597       4.205861       0.240428      -0.792101       0.561045
      5   2   -1.0000      -2.436347      -0.704170       2.043222      -0.870427       0.439643      -0.221517
ITEM: TIMESTEP
2200
ITEM: NUMBER OF ATOMS
5
ITEM: BOX BOUNDS ff ff ff
-5.00000000    5.00000000     
-5.00000000    5.00000000     
-5.00000000    5.00000000     
ITEM: ATOMS id type q x y z mux muy muz
      1   1    1.0000       2.753615      -0.276974       4.885434      -0.841599      -0.226623      -0.490259
      2   2   -1.0000       0.749513      -3.271151      -3.733617      -0.991522       0.118539      -0.053215
      3   1    1.0000       1.628133       4.726422      -2.122628      -0.251209      -0.548978      -0.797193
      4   2   -1.0000      -4.654086       2.760178       4.209342       0.472968      -0.733045       0.488822
      5   2   -1.0000      -2.441727      -0.678605       2.067442      -0.871321       0.432835      -0.231201
ITEM: TIMESTEP
2300
ITEM: NUMBER OF ATOMS
5
ITEM: BOX BOUNDS ff ff ff
-5.00000000    5.00000000     
-5.00000000    5.00000000     
-5.00000000    5.00000000     
ITEM: ATOMS id type q x y z mux muy muz
      1   1    1.0000       2.790763      -0.262804       4.884036      -0.772681      -0.263153      -0.577681
      2   2   -1.0000       0.754232      -3.283977      -3.811501      -0.993611       0.102476      -0.047291
      3   1    1.0000       1.612470       4.745757      -2.071365      -0.259830      -0.558522      -0.787744
      4   2   -1.0000      -4.675465       2.713864       4.212834       0.679589      -0.626366       0.381871
      5   2   -1.0000      -2.446553      -0.652969       2.091969      -0.872476       0.425981      -0.239429
ITEM: TIMESTEP
2400
ITEM: NUMBER OF ATOMS
5
ITEM: BOX BOUNDS ff ff ff
-5.00000000    5.00000000     
-5.00000000    5.00000000     
-5.00000000    5.00000000     
ITEM: ATOMS id type q x y z mux muy muz
      1   1    1.0000       2.827411      -0.248723       4.882374      -0.701794      -0.292892      -0.649384
      2   2   -1.0000       0.759091      -3.296700      -3.889537      -0.995277       0.087788      -0.041431
      3   1    1.0000       1.596638       4.764900      -2.019982      -0.268266      -0.567560      -0.778401
      4   2   -1.0000      -4.696884       2.667646       4.216336       0.844164      -0.476531       0.245572
      5   2   -1.0000      -2.450810      -0.627252       2.116782      -0.874000       0.418949      -0.246184
ITEM: TIMESTEP
2500
ITEM: NUMBER OF ATOMS
5
ITEM: BOX BOUNDS ff ff ff
-5.00000000    5.00000000     
-5.00000000    5.00000000     
-5.00000000    5.00000000     
ITEM: ATOMS id type q x y z mux muy muz
      1   1    1.0000       2.863564      -0.234736       4.880468      -0.632851      -0.316527      -0.706619
      2   2   -1.0000       0.764085      -3.309318      -3.967719      -0.996594       0.074330      -0.035726
      3   1    1.0000       1.580638       4.783853      -1.968487      -0.276469      -0.576063      -0.769231
      4   2   -1.0000      -4.718357       2.621517       4.219851       0.952321      -0.292046       0.088285
      5   2   -1.0000      -2.454484      -0.601445       2.141859      -0.875983       0.411645      -0.251401
ITEM: TIMESTEP
2600
ITEM: NUMBER OF ATOMS
5
ITEM: BOX BOUNDS ff ff ff
-5.00000000    5.00000000     
-5.00000000    5.00000000     
-5.00000000    5.00000000     
ITEM: ATOMS id type q x y z mux muy muz
      1   1    1.0000       2.899222      -0.220846       4.878337      -0.568813      -0.334939      -0.751177
      2   2   -1.0000       0.769212      -3.321830      -4.046039      -0.997620       0.061971      -0.030245
      3   1    1.0000       1.564470       4.802616      -1.916887      -0.284398      -0.584019      -0.760290
      4   2   -1.0000      -4.739899       2.575474       4.223391       0.993224      -0.085142      -0.079104
      5   2   -1.0000      -2.457558      -0.575544       2.167172      -0.878494       0.404028      -0.254968
ITEM: TIMESTEP
2700
ITEM: NUMBER OF ATOMS
5
ITEM: BOX BOUNDS ff ff ff
-5.00000000    5.00000000     
-5.00000000    5.00000000     
-5.00000000    5.00000000     
ITEM: ATOMS id type q x y z mux muy muz
      1   1    1.0000       2.934387      -0.207055       4.875999      -0.511658      -0.349075      -0.785082
      2   2   -1.0000       0.774468      -3.334234      -4.124495      -0.998405       0.050598      -0.025030
      3   1    1.0000       1.548134       4.821189      -1.865189      -0.292022      -0.591436      -0.751616
      4   2   -1.0000      -4.761529       2.529519       4.226968       0.961125       0.129121      -0.244063
      5   2   -1.0000      -2.460013      -0.549547       2.192690      -0.881577       0.396117      -0.256735
ITEM: TIMESTEP
2800
ITEM: NUMBER OF ATOMS
5
ITEM: BOX BOUNDS ff ff ff
-5.00000000    5.00000000     
-5.00000000    5.00000000     
-5.00000000    5.00000000     
ITEM: ATOMS id type q x y z mux muy muz
      1   1    1.0000       2.969061      -0.193365       4.873470      -0.462477      -0.359830      -0.810332
      2   2   -1.0000       0.779851      -3.346532      -4.203084      -0.998993       0.040107      -0.020106
      3   1    1.0000       1.531630       4.839573      -1.813395      -0.299324      -0.598342      -0.743231
      4   2   -1.0000      -4.783266       2.483655       4.230601       0.856365       0.334225      -0.393615
      5   2   -1.0000      -2.461829      -0.523460       2.218380      -0.885242       0.387992      -0.256532
ITEM: TIMESTEP
2900
ITEM: NUMBER OF ATOMS
5
ITEM: BOX BOUNDS ff ff ff
-5.00000000    5.00000000     
-5.00000000    5.00000000     
-5.00000000    5.00000000     
ITEM: ATOMS id type q x y z mux muy muz
      1   1    1.0000       3.003244      -0.179773       4.870767      -0.421638      -0.367986      -0.828738
      2   2   -1.0000       0.785358      -3.358723      -4.281808      -0.999418       0.030409      -0.015480
      3   1    1.0000       1.514957       4.857768      -1.761504      -0.306304      -0.604772      -0.735138
      4   2   -1.0000      -4.805132       2.437895       4.234311       0.685621       0.513838      -0.515649
      5   2   -1.0000      -2.462980      -0.497295       2.244208      -0.889464       0.379799      -0.254180
ITEM: TIMESTEP
3000
ITEM: NUMBER OF ATOMS
5
ITEM: BOX BOUNDS ff ff ff
-5.00000000    5.00000000     
-5.00000000    5.00000000     
-5.00000000    5.00000000     
ITEM: ATOMS id type q x y z mux muy muz
      1   1    1.0000       3.036935      -0.166278       4.867901      -0.388976      -0.374183      -0.841834
      2   2   -1.0000       0.790985      -3.370811      -4.360672      -0.999708       0.021422      -0.011148
      3   1    1.0000       1.498114       4.875775      -1.709514      -0.312976      -0.610776      -0.727323
      4   2   -1.0000      -4.827150       2.392255       4.238119       0.461389       0.653420      -0.600135
      5   2   -1.0000      -2.463438      -0.471070       2.270139      -0.894177       0.371736      -0.249518
ITEM: TIMESTEP
3100
ITEM: NUMBER OF ATOMS
5
ITEM: BOX BOUNDS ff ff ff
-5.00000000    5.00000000     
-5.00000000    5.00000000     
-5.00000000    5.00000000     
ITEM: ATOMS id type q x y z mux muy muz
      1   1    1.0000       3.070134      -0.152873       4.864884      -0.363972      -0.378909      -0.850854
      2   2   -1.0000       0.796731      -3.382798      -4.439680      -0.999889       0.013077      -0.007098
      3   1    1.0000       1.481098       4.893594      -1.657418      -0.319371      -0.616404      -0.719756
      4   2   -1.0000      -4.849345       2.346754       4.242044       0.200826       0.741608      -0.640067
      5   2   -1.0000      -2.463172      -0.444805       2.296142      -0.899281       0.364043      -0.242419
ITEM: TIMESTEP
3200
ITEM: NUMBER OF ATOMS
5
ITEM: BOX BOUNDS ff ff ff
-5.00000000    5.00000000     
-5.00000000    5.00000000     
-5.00000000    5.00000000     
ITEM: ATOMS id type q x y z mux muy muz
      1   1    1.0000       3.102839      -0.139556       4.861726      -0.345898      -0.382524      -0.856756
      2   2   -1.0000       0.802593      -3.394688      -4.518837      -0.999980       0.005314      -0.003314
      3   1    1.0000       1.463905       4.911225      -1.605210      -0.325531      -0.621706      -0.712398
      4   2   -1.0000      -4.871739       2.301418       4.246103      -0.075821       0.771199      -0.632062
      5   2   -1.0000      -2.462151      -0.418528       2.322190      -0.904634       0.356978      -0.232818
ITEM: TIMESTEP
3300
ITEM: NUMBER OF ATOMS
5
ITEM: BOX BOUNDS ff ff ff
-5.00000000    5.00000000     
-5.00000000    5.00000000     
-5.00000000    5.00000000     
ITEM: ATOMS id type q x y z mux muy muz
      1   1    1.0000       3.135049      -0.126320       4.858434      -0.333926      -0.385283      -0.860262
      2   2   -1.0000       0.808569      -3.406484      -4.598149      -0.999998      -0.001918       0.000221
      3   1    1.0000       1.446528       4.928670      -1.552882      -0.331506      -0.626730      -0.705204
      4   2   -1.0000      -4.894355       2.256271       4.250309      -0.346976       0.739699      -0.576587
      5   2   -1.0000      -2.460343      -0.392266       2.348260      -0.910066       0.350796      -0.220732
ITEM: TIMESTEP
3400
ITEM: NUMBER OF ATOMS
5
ITEM: BOX BOUNDS ff ff ff
-5.00000000    5.00000000     
-5.00000000    5.00000000     
-5.00000000    5.00000000     
ITEM: ATOMS id type q x y z mux muy muz
      1   1    1.0000       3.166761      -0.113160       4.855014      -0.327206      -0.387360      -0.861910
      2   2   -1.0000       0.814656      -3.418191      -4.677619      -0.999956      -0.008663       0.003526
      3   1    1.0000       1.428962       4.945928      -1.500425      -0.337354      -0.631513      -0.698128
      4   2   -1.0000      -4.917212       2.211340       4.254666      -0.591503       0.649446      -0.477853
      5   2   -1.0000      -2.457720      -0.366046       2.374337      -0.915383       0.345724      -0.206273
ITEM: TIMESTEP
3500
ITEM: NUMBER OF ATOMS
5
ITEM: BOX BOUNDS ff ff ff
-5.00000000    5.00000000     
-5.00000000    5.00000000     
-5.00000000    5.00000000     
ITEM: ATOMS id type q x y z mux muy muz
      1   1    1.0000       3.197976      -0.100073       4.851469      -0.324914      -0.388873      -0.862096
      2   2   -1.0000       0.820852      -3.429812      -4.757248      -0.999866      -0.014959       0.006615
      3   1    1.0000       1.411199       4.962999      -1.447832      -0.343130      -0.636088      -0.691125
      4   2   -1.0000      -4.940323       2.166647       4.259172      -0.790343       0.507360      -0.343430
      5   2   -1.0000      -2.454257      -0.339891       2.400411      -0.920385       0.341936      -0.189661
ITEM: TIMESTEP
3600
ITEM: NUMBER OF ATOMS
5
ITEM: BOX BOUNDS ff ff ff
-5.00000000    5.00000000     
-5.00000000    5.00000000     
-5.00000000    5.00000000     
ITEM: ATOMS id type q x y z mux muy muz
      1   1    1.0000       3.228692      -0.087053       4.847804      -0.326281      -0.389908      -0.861111
      2   2   -1.0000       0.827154      -3.441351      -4.837033      -0.999738      -0.020842       0.009502
      3   1    1.0000       1.393233       4.979883      -1.395100      -0.348891      -0.640475      -0.684154
      4   2   -1.0000      -4.963696       2.122212       4.263820      -0.927931       0.324374      -0.183644
      5   2   -1.0000      -2.449937      -0.313820       2.426482      -0.924877       0.339536      -0.171227
ITEM: TIMESTEP
3700
ITEM: NUMBER OF ATOMS
5
ITEM: BOX BOUNDS ff ff ff
-5.00000000    5.00000000     
-5.00000000    5.00000000     
-5.00000000    5.00000000     
ITEM: ATOMS id type q x y z mux muy muz
      1   1    1.0000       3.258910      -0.074098       4.844020      -0.330610      -0.390528      -0.859177
      2   2   -1.0000       0.833560      -3.452811      -4.916968      -0.999579      -0.026344       0.012196
      3   1    1.0000       1.375056       4.996578      -1.342226      -0.354683      -0.644686      -0.677185
      4   2   -1.0000      -4.987330       2.078047       4.268594      -0.993351       0.114617      -0.010805
      5   2   -1.0000      -2.444749      -0.287845       2.452553      -0.928693       0.338537      -0.151399
ITEM: TIMESTEP
3800
ITEM: NUMBER OF ATOMS
5
ITEM: BOX BOUNDS ff ff ff
-5.00000000    5.00000000     
-5.00000000    5.00000000     
-5.00000000    5.00000000     
ITEM: ATOMS id type q x y z mux muy muz
      1   1    1.0000       3.288630      -0.061209       4.840119      -0.337285      -0.390786      -0.856461
      2   2   -1.0000       0.840068      -3.464195      -4.997044      -0.999396      -0.031498       0.014704
      3   1    1.0000       1.356660       4.986781      -1.289212      -0.360549      -0.648725      -0.670194
      4   2   -1.0000      -4.988825       2.034159       4.273475      -0.981172      -0.105622       0.161699
      5   2   -1.0000      -2.438692      -0.261969       2.478633      -0.931715       0.338863      -0.130686
ITEM: TIMESTEP
3900
ITEM: NUMBER OF ATOMS
5
ITEM: BOX BOUNDS ff ff ff
-5.00000000    5.00000000     
-5.00000000    5.00000000     
-5.00000000    5.00000000     
ITEM: ATOMS id type q x y z mux muy muz