ITEM: TIMESTEP
0
ITEM: NUMBER OF ATOMS
5
ITEM: BOX BOUNDS ff ff ff
-5.00000000    5.00000000     
-5.00000000    5.00000000     
-5.00000000    5.00000000     
ITEM: ATOMS id type q x y z mux muy muz
      1   1    1.0000       2.024546       1.630131      -1.177361      -0.403196       0.771336       0.492417
      2   2   -1.0000      -0.857083      -1.519707      -2.645926      -0.363786      -0.389251       0.846252
      3   1    1.0000      -0.418653       1.864439       2.419262      -0.157394       0.064057      -0.985456
      4   2   -1.0000       2.788546      -1.252264       2.646638       0.951485       0.087044       0.295125
      5   2   -1.0000      -4.934660      -0.230090       2.939278       0.708714      -0.475344       0.521319
ITEM: TIMESTEP
100
ITEM: NUMBER OF ATOMS
5
ITEM: BOX BOUNDS ff ff ff
-5.00000000    5.00000000     
-5.00000000    5.00000000     
-5.00000000    5.00000000     
ITEM: ATOMS id type q x y z mux muy muz
      1   1    1.0000       1.982234       1.646962      -1.210766      -0.409851       0.767059       0.493601
      2   2   -1.0000      -0.809553      -1.529107      -2.623470      -0.360913      -0.396073       0.844315
      3   1    1.0000      -0.422576       1.873857       2.379107      -0.160491       0.057279      -0.985374
      4   2   -1.0000       2.769417      -1.210246       2.674314       0.952317       0.082581       0.293722
      5   2   -1.0000      -4.916826      -0.288956       2.962706       0.509694      -0.712412       0.482370
ITEM: TIMESTEP
200
ITEM: NUMBER OF ATOMS
5
ITEM: BOX BOUNDS ff ff ff
-5.00000000    5.00000000     
-5.00000000    5.00000000     
-5.00000000    5.00000000     
ITEM: ATOMS id type q x y z mux muy muz
      1   1    1.0000       1.940272       1.663138      -1.244832      -0.419605       0.761055       0.494698
      2   2   -1.0000      -0.761829      -1.538053      -2.600841      -0.358861      -0.406867       0.840046
      3   1    1.0000      -0.427134       1.882495       2.339663      -0.167691       0.042863      -0.984907
      4   2   -1.0000       2.750102      -1.167429       2.701777       0.953125       0.072250       0.293823
      5   2   -1.0000      -4.898714      -0.347642       2.986124       0.261252      -0.879751       0.397223
ITEM: TIMESTEP
300
ITEM: NUMBER OF ATOMS
5
ITEM: BOX BOUNDS ff ff ff
-5.00000000    5.00000000     
-5.00000000    5.00000000     
-5.00000000    5.00000000     
ITEM: ATOMS id type q x y z mux muy muz
      1   1    1.0000       1.898659       1.678656      -1.279574      -0.432593       0.753133       0.495635
      2   2   -1.0000      -0.713912      -1.546528      -2.578035      -0.357475      -0.421663       0.833314
      3   1    1.0000      -0.432353       1.890327       2.300986      -0.179317       0.020330      -0.983581
      4   2   -1.0000       2.730601      -1.123818       2.729011       0.953692       0.056116       0.295505
      5   2   -1.0000      -4.880298      -0.406128       3.009503      -0.011704      -0.961471       0.274656
ITEM: TIMESTEP
400
ITEM: NUMBER OF ATOMS
5
ITEM: BOX BOUNDS ff ff ff
-5.00000000    5.00000000     
-5.00000000    5.00000000     
-5.00000000    5.00000000     
ITEM: ATOMS id type q x y z mux muy muz
      1   1    1.0000       1.857395       1.693511      -1.315005      -0.448958       0.743025       0.496338
      2   2   -1.0000      -0.665801      -1.554515      -2.555043      -0.356558      -0.440480       0.823920
      3   1    1.0000      -0.438245       1.897321       2.263129      -0.195560      -0.010900      -0.980631
      4   2   -1.0000       2.710916      -1.079413       2.755999       0.953695       0.034237       0.298819
      5   2   -1.0000      -4.861567      -0.464395       3.032812      -0.282198      -0.950889       0.127181
ITEM: TIMESTEP
500
ITEM: NUMBER OF ATOMS
5
ITEM: BOX BOUNDS ff ff ff
-5.00000000    5.00000000     
-5.00000000    5.00000000     
-5.00000000    5.00000000     
ITEM: ATOMS id type q x y z mux muy muz
      1   1    1.0000       1.816482       1.707696      -1.351141      -0.468846       0.730381       0.496716
      2   2   -1.0000      -0.617496      -1.561991      -2.531856      -0.355870      -0.463320       0.811598
      3   1    1.0000      -0.444807       1.903442       2.226144      -0.216420      -0.051458      -0.974943
      4   2   -1.0000       2.691043      -1.034211       2.782720       0.952716       0.006666       0.303790
      5   2   -1.0000      -4.842525      -0.522426       3.056024      -0.524270      -0.851007      -0.030468
ITEM: TIMESTEP
600
ITEM: NUMBER OF ATOMS
5
ITEM: BOX BOUNDS ff ff ff
-5.00000000    5.00000000     
-5.00000000    5.00000000     
-5.00000000    5.00000000     
ITEM: ATOMS id type q x y z mux muy muz
      1   1    1.0000       1.775925       1.721199      -1.387992      -0.492389       0.714765       0.496653
      2   2   -1.0000      -0.569000      -1.568928      -2.508462      -0.355138      -0.490151       0.796008
      3   1    1.0000      -0.452018       1.908657       2.190075      -0.241627      -0.101928      -0.965001
      4   2   -1.0000       2.670979      -0.988210       2.809152       0.950236      -0.026534       0.310399
      5   2   -1.0000      -4.823189      -0.580209       3.079118      -0.715855      -0.673823      -0.183068
ITEM: TIMESTEP
700
ITEM: NUMBER OF ATOMS
5
ITEM: BOX BOUNDS ff ff ff
-5.00000000    5.00000000     
-5.00000000    5.00000000     
-5.00000000    5.00000000     
ITEM: ATOMS id type q x y z mux muy muz
      1   1    1.0000       1.735732       1.734009      -1.425570      -0.519681       0.695646       0.495993
      2   2   -1.0000      -0.520320      -1.575293      -2.484850      -0.354058      -0.520877       0.776743
      3   1    1.0000      -0.459840       1.912931       2.154962      -0.270577      -0.162709      -0.948849
      4   2   -1.0000       2.650714      -0.941403       2.835271       0.945651      -0.065250       0.318570
      5   2   -1.0000      -4.803589      -0.637734       3.102078      -0.841080      -0.438540      -0.316649
ITEM: TIMESTEP
800
ITEM: NUMBER OF ATOMS
5
ITEM: BOX BOUNDS ff ff ff
-5.00000000    5.00000000     
-5.00000000    5.00000000     
-5.00000000    5.00000000     
ITEM: ATOMS id type q x y z mux muy muz
      1   1    1.0000       1.695916       1.746108      -1.463883      -0.550749       0.672399       0.494525
      2   2   -1.0000      -0.471466      -1.581045      -2.461008      -0.352294      -0.555304       0.753343
      3   1    1.0000      -0.468219       1.916235       2.120833      -0.302248      -0.233820      -0.924107
      4   2   -1.0000       2.630229      -0.893790       2.861051       0.938285      -0.109277       0.328147
      5   2   -1.0000      -4.783763      -0.694998       3.124897      -0.891665      -0.168969      -0.419979
ITEM: TIMESTEP
900
ITEM: NUMBER OF ATOMS
5
ITEM: BOX BOUNDS ff ff ff
-5.00000000    5.00000000     
-5.00000000    5.00000000     
-5.00000000    5.00000000     
ITEM: ATOMS id type q x y z mux muy muz
      1   1    1.0000       1.656490       1.757478      -1.502932      -0.585510       0.644310       0.491977
      2   2   -1.0000      -0.422454      -1.586141      -2.436921      -0.349491      -0.593097       0.725323
      3   1    1.0000      -0.477084       1.918541       2.087708      -0.335144      -0.314674      -0.888064
      4   2   -1.0000       2.609499      -0.845372       2.886465       0.927424      -0.158258       0.338880
      5   2   -1.0000      -4.763754      -0.751997       3.147572      -0.867280       0.109506      -0.485627
ITEM: TIMESTEP
1000
ITEM: NUMBER OF ATOMS
5
ITEM: BOX BOUNDS ff ff ff
-5.00000000    5.00000000     
-5.00000000    5.00000000     
-5.00000000    5.00000000     
ITEM: ATOMS id type q x y z mux muy muz
      1   1    1.0000       1.617470       1.768096      -1.542716      -0.623729       0.610583       0.488007
      2   2   -1.0000      -0.373305      -1.590528      -2.412577      -0.345279      -0.633747       0.692204
      3   1    1.0000      -0.486349       1.919829       2.055594      -0.367276      -0.403842      -0.837866
      4   2   -1.0000       2.588490      -0.796157       2.911484       0.912369      -0.211644       0.350413
      5   2   -1.0000      -4.743608      -0.808730       3.170106      -0.774833       0.372943      -0.510438
ITEM: TIMESTEP
1100
ITEM: NUMBER OF ATOMS
5
ITEM: BOX BOUNDS ff ff ff
-5.00000000    5.00000000     
-5.00000000    5.00000000     
-5.00000000    5.00000000     
ITEM: ATOMS id type q x y z mux muy muz
      1   1    1.0000       1.578867       1.777932      -1.583224      -0.664965       0.570354       0.482201
      2   2   -1.0000      -0.324045      -1.594150      -2.387964      -0.339294      -0.676555       0.653569
      3   1    1.0000      -0.495915       1.920081       2.024485      -0.396192      -0.498868      -0.770820
      4   2   -1.0000       2.567156      -0.746158       2.936085       0.892504      -0.268658       0.362297
      5   2   -1.0000      -4.723366      -0.865195       3.192509      -0.626856       0.601360      -0.495398
ITEM: TIMESTEP
1200
ITEM: NUMBER OF ATOMS
5
ITEM: BOX BOUNDS ff ff ff
-5.00000000    5.00000000     
-5.00000000    5.00000000     
-5.00000000    5.00000000     
ITEM: ATOMS id type q x y z mux muy muz
      1   1    1.0000       1.540692       1.786952      -1.624439      -0.708529       0.522721       0.474078
      2   2   -1.0000      -0.274703      -1.596945      -2.363069      -0.331197      -0.720627       0.609102
      3   1    1.0000      -0.505671       1.919289       1.994365      -0.419098      -0.596173      -0.684788
      4   2   -1.0000       2.545445      -0.695399       2.960243       0.867374      -0.328305       0.374003
      5   2   -1.0000      -4.703066      -0.921389       3.214791      -0.439324       0.780399      -0.444941
ITEM: TIMESTEP
1300
ITEM: NUMBER OF ATOMS
5
ITEM: BOX BOUNDS ff ff ff
-5.00000000    5.00000000     
-5.00000000    5.00000000     
-5.00000000    5.00000000     
ITEM: ATOMS id type q x y z mux muy muz
      1   1    1.0000       1.502946       1.795116      -1.666335      -0.753428       0.466784       0.463098
      2   2   -1.0000      -0.225310      -1.598842      -2.337884      -0.320691      -0.764901       0.558645
      3   1    1.0000      -0.515496       1.917447       1.965207      -0.433063      -0.691123      -0.578623
      4   2   -1.0000       2.523296      -0.643907       2.983940       0.836760      -0.389407       0.384960
      5   2   -1.0000      -4.682739      -0.977305       3.236963      -0.229356       0.901949      -0.365901
ITEM: TIMESTEP
1400
ITEM: NUMBER OF ATOMS
5
ITEM: BOX BOUNDS ff ff ff
-5.00000000    5.00000000     
-5.00000000    5.00000000     
-5.00000000    5.00000000     
ITEM: ATOMS id type q x y z mux muy muz
      1   1    1.0000       1.465624       1.802370      -1.708873      -0.798327       0.401697       0.448680
      2   2   -1.0000      -0.175899      -1.599767      -2.312405      -0.307549      -0.808192       0.502235
      3   1    1.0000      -0.525264       1.914560       1.936972      -0.435292      -0.778268      -0.452571
      4   2   -1.0000       2.500645      -0.591718       3.007161       0.800732      -0.450683       0.394606
      5   2   -1.0000      -4.662409      -1.032936       3.259037      -0.013197       0.963789      -0.266339
ITEM: TIMESTEP
1500
ITEM: NUMBER OF ATOMS
5
ITEM: BOX BOUNDS ff ff ff
-5.00000000    5.00000000     
-5.00000000    5.00000000     
-5.00000000    5.00000000     
ITEM: ATOMS id type q x y z mux muy muz
      1   1    1.0000       1.428711       1.808652      -1.752006      -0.841512       0.326748       0.430224
      2   2   -1.0000      -0.126501      -1.599637      -2.286634      -0.291632      -0.849255       0.440133
      3   1    1.0000      -0.534843       1.910636       1.909615      -0.423439      -0.851764      -0.308542
      4   2   -1.0000       2.477422      -0.538873       3.029895       0.759665      -0.510843       0.402429
      5   2   -1.0000      -4.642092      -1.088268       3.281020       0.195210       0.968520      -0.154472
ITEM: TIMESTEP
1600
ITEM: NUMBER OF ATOMS
5
ITEM: BOX BOUNDS ff ff ff
-5.00000000    5.00000000     
-5.00000000    5.00000000     
-5.00000000    5.00000000     
ITEM: ATOMS id type q x y z mux muy muz
      1   1    1.0000       1.392184       1.813886      -1.795673      -0.880870       0.241452       0.407147
      2   2   -1.0000      -0.077147      -1.598363      -2.260578      -0.272900      -0.886856       0.372842
      3   1    1.0000      -0.544100       1.905689       1.883086      -0.395910      -0.905921      -0.150207
      4   2   -1.0000       2.453560      -0.485415       3.052138       0.714226      -0.568691       0.408010
      5   2   -1.0000      -4.621800      -1.143287       3.302919       0.384974       0.922150      -0.037877
ITEM: TIMESTEP
1700
ITEM: NUMBER OF ATOMS
5
ITEM: BOX BOUNDS ff ff ff
-5.00000000    5.00000000     
-5.00000000    5.00000000     
-5.00000000    5.00000000     
ITEM: ATOMS id type q x y z mux muy muz
      1   1    1.0000       1.356010       1.817981      -1.839803      -0.913890       0.145679       0.378922
      2   2   -1.0000      -0.027862      -1.595849      -2.234259      -0.251428      -0.919848       0.301102
      3   1    1.0000      -0.552908       1.899739       1.857331      -0.352105      -0.935803       0.017157
      4   2   -1.0000       2.428994      -0.431388       3.073887       0.665313      -0.623215       0.411050
      5   2   -1.0000      -4.601538      -1.197973       3.324735       0.548397       0.832666       0.076993
ITEM: TIMESTEP
1800
ITEM: NUMBER OF ATOMS
5
ITEM: BOX BOUNDS ff ff ff
-5.00000000    5.00000000     
-5.00000000    5.00000000     
-5.00000000    5.00000000     
ITEM: ATOMS id type q x y z mux muy muz
      1   1    1.0000       1.320149       1.820836      -1.884310      -0.937706       0.039786       0.345143
      2   2   -1.0000       0.021331      -1.591994      -2.207708      -0.227404      -0.947242       0.225878
      3   1    1.0000      -0.561141       1.892806       1.832300      -0.292544      -0.937781       0.187040
      4   2   -1.0000       2.403663      -0.376834       3.095143       0.613974      -0.673647       0.411383
      5   2   -1.0000      -4.581306      -1.252305       3.346466       0.680674       0.708845       0.184990
ITEM: TIMESTEP
1900
ITEM: NUMBER OF ATOMS
5
ITEM: BOX BOUNDS ff ff ff
-5.00000000    5.00000000     
-5.00000000    5.00000000     
-5.00000000    5.00000000     
ITEM: ATOMS id type q x y z mux muy muz
      1   1    1.0000       1.284555       1.822332      -1.929095      -0.949188      -0.075233       0.305586
      2   2   -1.0000       0.070417      -1.586689      -2.180974      -0.201128      -0.968270       0.148325
      3   1    1.0000      -0.568686       1.884915       1.807949      -0.218867      -0.909952       0.352257
      4   2   -1.0000       2.377514      -0.321793       3.115906       0.561317      -0.719490       0.408971
      5   2   -1.0000      -4.561104      -1.306256       3.368104       0.779376       0.559389       0.282235
ITEM: TIMESTEP
2000
ITEM: NUMBER OF ATOMS
5
ITEM: BOX BOUNDS ff ff ff
-5.00000000    5.00000000     
-5.00000000    5.00000000     
-5.00000000    5.00000000     
ITEM: ATOMS id type q x y z mux muy muz
      1   1    1.0000       1.249180       1.822343      -1.974046      -0.945092      -0.197617       0.260287
      2   2   -1.0000       0.119384      -1.579824      -2.154122      -0.173001      -0.982448       0.069755
      3   1    1.0000      -0.575440       1.876088       1.784241      -0.133688      -0.852348       0.505599
      4   2   -1.0000       2.350504      -0.266298       3.136177       0.508422      -0.760516       0.403884
      5   2   -1.0000      -4.540932      -1.359800       3.389641       0.843852       0.392419       0.365953
ITEM: TIMESTEP
2100
ITEM: NUMBER OF ATOMS
5
ITEM: BOX BOUNDS ff ff ff
-5.00000000    5.00000000     
-5.00000000    5.00000000     
-5.00000000    5.00000000     
ITEM: ATOMS id type q x y z mux muy muz
      1   1    1.0000       1.213974       1.820738      -2.019038      -0.922280      -0.324742       0.209622
      2   2   -1.0000       0.168228      -1.571289      -2.127237      -0.143508      -0.989613      -0.008423
      3   1    1.0000      -0.581314       1.866347       1.761150      -0.040340      -0.766915       0.640479
      4   2   -1.0000       2.322598      -0.210382       3.155951       0.456270      -0.796729       0.396284
      5   2   -1.0000      -4.520789      -1.412904       3.411064       0.874697       0.215237       0.434256
ITEM: TIMESTEP
2200
ITEM: NUMBER OF ATOMS
5
ITEM: BOX BOUNDS ff ff ff
-5.00000000    5.00000000     
-5.00000000    5.00000000     
-5.00000000    5.00000000     
ITEM: ATOMS id type q x y z mux muy muz
      1   1    1.0000       1.178888       1.817383      -2.063932      -0.877998      -0.453090       0.154366
      2   2   -1.0000       0.216949      -1.560976      -2.100422      -0.113201      -0.989951      -0.084753
      3   1    1.0000      -0.586236       1.855708       1.738665       0.057451      -0.657265       0.751466
      4   2   -1.0000       2.293774      -0.154068       3.175219       0.405696      -0.828318       0.386394
      5   2   -1.0000      -4.500679      -1.465538       3.432360       0.873327       0.034299       0.485925
ITEM: TIMESTEP
2300
ITEM: NUMBER OF ATOMS
5
ITEM: BOX BOUNDS ff ff ff
-5.00000000    5.00000000     
-5.00000000    5.00000000     
-5.00000000    5.00000000     
ITEM: ATOMS id type q x y z mux muy muz
      1   1    1.0000       1.143878       1.812155      -2.108580      -0.810181      -0.578307       0.095746
      2   2   -1.0000       0.265553      -1.548789      -2.073798      -0.082670      -0.984004      -0.157801
      3   1    1.0000      -0.590147       1.844189       1.716789       0.155903      -0.528267       0.834643
      4   2   -1.0000       2.264021      -0.097377       3.193965       0.357367      -0.855601       0.374481
      5   2   -1.0000      -4.480608      -1.517668       3.453515       0.841675      -0.144696       0.520237
ITEM: TIMESTEP
2400
ITEM: NUMBER OF ATOMS
5
ITEM: BOX BOUNDS ff ff ff
-5.00000000    5.00000000     
-5.00000000    5.00000000     
-5.00000000    5.00000000     
ITEM: ATOMS id type q x y z mux muy muz
      1   1    1.0000       1.108903       1.804938      -2.152822      -0.717783      -0.695364       0.035442
      2   2   -1.0000       0.314048      -1.534642      -2.047505      -0.052519      -0.972662      -0.226207
      3   1    1.0000      -0.593004       1.831799       1.695538       0.251485      -0.385553       0.887752
      4   2   -1.0000       2.233338      -0.040325       3.212166       0.311778      -0.878972       0.360836
      5   2   -1.0000      -4.460589      -1.569261       3.474514       0.782011      -0.316666       0.536826
ITEM: TIMESTEP
2500
ITEM: NUMBER OF ATOMS
5
ITEM: BOX BOUNDS ff ff ff
-5.00000000    5.00000000     
-5.00000000    5.00000000     
-5.00000000    5.00000000     
ITEM: ATOMS id type q x y z mux muy muz
      1   1    1.0000       1.073930       1.795641      -2.196497      -0.601054      -0.798834      -0.024448
      2   2   -1.0000       0.362447      -1.518466      -2.021691      -0.023337      -0.957124      -0.288738
      3   1    1.0000      -0.594780       1.818548       1.674943       0.341144      -0.235031       0.910154
      4   2   -1.0000       2.201737       0.017074       3.229792       0.269267      -0.898854       0.345769
      5   2   -1.0000      -4.440637      -1.620287       3.495344       0.696858      -0.476990       0.535602
ITEM: TIMESTEP
2600
ITEM: NUMBER OF ATOMS
5
ITEM: BOX BOUNDS ff ff ff
-5.00000000    5.00000000     
-5.00000000    5.00000000     
-5.00000000    5.00000000     
ITEM: ATOMS id type q x y z mux muy muz
      1   1    1.0000       1.038931       1.784193      -2.239436      -0.461750      -0.883259      -0.081489
      2   2   -1.0000       0.410763      -1.500216      -1.996514       0.004323      -0.938840      -0.344327
      3   1    1.0000      -0.595460       1.804440       1.655045       0.422446      -0.082460       0.902629
      4   2   -1.0000       2.169239       0.074806       3.246802       0.230041      -0.915666       0.329601
      5   2   -1.0000      -4.420775      -1.670714       3.515994       0.588982      -0.621371       0.516718
ITEM: TIMESTEP
2700
ITEM: NUMBER OF ATOMS
5
ITEM: BOX BOUNDS ff ff ff
-5.00000000    5.00000000     
-5.00000000    5.00000000     
-5.00000000    5.00000000     
ITEM: ATOMS id type q x y z mux muy muz
      1   1    1.0000       1.003886       1.770555      -2.281479      -0.303221      -0.943586      -0.133047
      2   2   -1.0000       0.459007      -1.479868      -1.972132       0.029959      -0.919442      -0.392082
      3   1    1.0000      -0.595043       1.789479       1.635898       0.493628       0.066860       0.867099
      4   2   -1.0000       2.135876       0.132860       3.263152       0.194200      -0.929797       0.312672
      5   2   -1.0000      -4.401029      -1.720517       3.536452       0.461440      -0.745739       0.480569
ITEM: TIMESTEP
2800
ITEM: NUMBER OF ATOMS
5
ITEM: BOX BOUNDS ff ff ff
-5.00000000    5.00000000     
-5.00000000    5.00000000     
-5.00000000    5.00000000     
ITEM: ATOMS id type q x y z mux muy muz
      1   1    1.0000       0.968783       1.754715      -2.322471      -0.130350      -0.975638      -0.176464
      2   2   -1.0000       0.507192      -1.457420      -1.948699       0.053132      -0.900650      -0.431286
      3   1    1.0000      -0.593537       1.773669       1.617562       0.553583       0.208287       0.806327
      4   2   -1.0000       2.101687       0.191220       3.278790       0.161768      -0.941596       0.295344
      5   2   -1.0000      -4.381428      -1.769674       3.556709       0.317663      -0.846197       0.427833
ITEM: TIMESTEP
2900
ITEM: NUMBER OF ATOMS
5
ITEM: BOX BOUNDS ff ff ff
-5.00000000    5.00000000     
-5.00000000    5.00000000     
-5.00000000    5.00000000     
ITEM: ATOMS id type q x y z mux muy muz
      1   1    1.0000       0.933617       1.736688      -2.362273       0.050662      -0.976550      -0.209246
      2   2   -1.0000       0.555327      -1.432895      -1.926353       0.073462      -0.884168      -0.461357
      3   1    1.0000      -0.590962       1.757012       1.600102       0.601801       0.337921       0.723633
      4   2   -1.0000       2.066720       0.249867       3.293658       0.132719      -0.951365       0.278011
      5   2   -1.0000      -4.362004      -1.818163       3.576757       0.161564      -0.919036       0.359542
ITEM: TIMESTEP
3000
ITEM: NUMBER OF ATOMS
5
ITEM: BOX BOUNDS ff ff ff
-5.00000000    5.00000000     
-5.00000000    5.00000000     
-5.00000000    5.00000000     
ITEM: ATOMS id type q x y z mux muy muz
      1   1    1.0000       0.898389       1.716517      -2.400763       0.232682      -0.945141      -0.229274
      2   2   -1.0000       0.603417      -1.406330      -1.905219       0.090619      -0.871582      -0.481802
      3   1    1.0000      -0.587347       1.739512       1.583590       0.638293       0.452626       0.622666
      4   2   -1.0000       2.031030       0.308780       3.307695       0.106999      -0.959360       0.261114
      5   2   -1.0000      -4.342792      -1.865970       3.596589      -0.002350      -0.960816       0.277177
ITEM: TIMESTEP
3100
ITEM: NUMBER OF ATOMS
5
ITEM: BOX BOUNDS ff ff ff
-5.00000000    5.00000000     
-5.00000000    5.00000000     
-5.00000000    5.00000000     
ITEM: ATOMS id type q x y z mux muy muz
      1   1    1.0000       0.863109       1.694262      -2.437846       0.408147      -0.882157      -0.234978
      2   2   -1.0000       0.651463      -1.377775      -1.885394       0.104303      -0.864240      -0.492148
      3   1    1.0000      -0.582728       1.721177       1.568097       0.663500       0.549994       0.507223
      4   2   -1.0000       1.994679       0.367928       3.320837       0.084540      -0.965794       0.245143
      5   2   -1.0000      -4.323826      -1.913083       3.616197      -0.168891      -0.968540       0.182775
ITEM: TIMESTEP
3200
ITEM: NUMBER OF ATOMS
5
ITEM: BOX BOUNDS ff ff ff
-5.00000000    5.00000000     
-5.00000000    5.00000000     
-5.00000000    5.00000000     
ITEM: ATOMS id type q x y z mux muy muz
      1   1    1.0000       0.827792       1.669996      -2.473449       0.569674      -0.790336      -0.225476
      2   2   -1.0000       0.699459      -1.347287      -1.866950       0.114225      -0.863137      -0.491881
      3   1    1.0000      -0.577148       1.702017       1.553697       0.678224       0.628295       0.381127
      4   2   -1.0000       1.957731       0.427275       3.333020       0.065275      -0.970845       0.230649
      5   2   -1.0000      -4.305138      -1.959491       3.635573      -0.332152      -0.939909       0.079029
ITEM: TIMESTEP
3300
ITEM: NUMBER OF ATOMS
5
ITEM: BOX BOUNDS ff ff ff
-5.00000000    5.00000000     
-5.00000000    5.00000000     
-5.00000000    5.00000000     
ITEM: ATOMS id type q x y z mux muy muz
      1   1    1.0000       0.792462       1.643796      -2.507531       0.710688      -0.674288      -0.200646
      2   2   -1.0000       0.747391      -1.314920      -1.849930       0.120087      -0.868790      -0.480398
      3   1    1.0000      -0.570655       1.682045       1.540465       0.683560       0.686423       0.248131
      4   2   -1.0000       1.920257       0.486774       3.344179       0.049143      -0.974657       0.218238
      5   2   -1.0000      -4.286758      -2.005187       3.654709      -0.485562      -0.873666      -0.030628
ITEM: TIMESTEP
3400
ITEM: NUMBER OF ATOMS
5
ITEM: BOX BOUNDS ff ff ff
-5.00000000    5.00000000     
-5.00000000    5.00000000     
-5.00000000    5.00000000     
ITEM: ATOMS id type q x y z mux muy muz
      1   1    1.0000       0.757151       1.615739      -2.540078       0.825994      -0.540165      -0.161107
      2   2   -1.0000       0.795235      -1.280718      -1.834346       0.121581      -0.881116      -0.457004
      3   1    1.0000      -0.563303       1.661281       1.528473       0.680838       0.723842       0.111858
      4   2   -1.0000       1.882329       0.546370       3.354251       0.036098      -0.977341       0.208569
      5   2   -1.0000      -4.268715      -2.050163       3.673592      -0.622063      -0.769981      -0.142011
ITEM: TIMESTEP
3500
ITEM: NUMBER OF ATOMS
5
ITEM: BOX BOUNDS ff ff ff
-5.00000000    5.00000000     
-5.00000000    5.00000000     
-5.00000000    5.00000000     
ITEM: ATOMS id type q x y z mux muy muz
      1   1    1.0000       0.721896       1.585891      -2.571104       0.912226      -0.395163      -0.108124
      2   2   -1.0000       0.842954      -1.244715      -1.820183       0.118399      -0.899319      -0.420959
      3   1    1.0000      -0.555145       1.639752       1.517790       0.671574       0.740540      -0.024260
      4   2   -1.0000       1.844022       0.605995       3.363177       0.026107      -0.978967       0.202341
      5   2   -1.0000      -4.251031      -2.094413       3.692211      -0.734439      -0.630852      -0.250250
ITEM: TIMESTEP
3600
ITEM: NUMBER OF ATOMS
5
ITEM: BOX BOUNDS ff ff ff
-5.00000000    5.00000000     
-5.00000000    5.00000000     
-5.00000000    5.00000000     
ITEM: ATOMS id type q x y z mux muy muz
      1   1    1.0000       0.686749       1.554299      -2.600649       0.968063      -0.246920      -0.043419
      2   2   -1.0000       0.890497      -1.206921      -1.807393       0.110278      -0.921817      -0.371608
      3   1    1.0000      -0.546236       1.617490       1.508482       0.657416       0.736985      -0.157024
      4   2   -1.0000       1.805412       0.665568       3.370902       0.019155      -0.979554       0.200270
      5   2   -1.0000      -4.233725      -2.137928       3.710549      -0.815802      -0.460417      -0.349976
ITEM: TIMESTEP
3700
ITEM: NUMBER OF ATOMS
5
ITEM: BOX BOUNDS ff ff ff
-5.00000000    5.00000000     
-5.00000000    5.00000000     
-5.00000000    5.00000000     
ITEM: ATOMS id type q x y z mux muy muz
      1   1    1.0000       0.651770       1.520989      -2.628774       0.994208      -0.102893       0.031056
      2   2   -1.0000       0.937792      -1.167326      -1.795910       0.097069      -0.946232      -0.308582
      3   1    1.0000      -0.536630       1.594541       1.500613       0.640095       0.714074      -0.283507
      4   2   -1.0000       1.766576       0.725000       3.377374       0.015239      -0.979046       0.203069
      5   2   -1.0000      -4.216811      -2.180695       3.728588      -0.860197      -0.265110      -0.435636
ITEM: TIMESTEP
3800
ITEM: NUMBER OF ATOMS
5
ITEM: BOX BOUNDS ff ff ff
-5.00000000    5.00000000     
-5.00000000    5.00000000     
-5.00000000    5.00000000     
ITEM: ATOMS id type q x y z mux muy muz
      1   1    1.0000       0.617037       1.485960      -2.655562       0.993097       0.030166       0.113347
      2   2   -1.0000       0.984748      -1.125895      -1.785641       0.078842      -0.969501      -0.232058
      3   1    1.0000      -0.526377       1.570959       1.494238       0.621369       0.673076      -0.401085
      4   2   -1.0000       1.727587       0.784187       3.382547       0.014371      -0.977290       0.211421
      5   2   -1.0000      -4.200299      -2.222702       3.746309      -0.863259      -0.053566      -0.501912
ITEM: TIMESTEP
3900
ITEM: NUMBER OF ATOMS
5
ITEM: BOX BOUNDS ff ff ff
-5.00000000    5.00000000     
-5.00000000    5.00000000     
-5.00000000    5.00000000     
ITEM: ATOMS id type q x y z mux muy muz