ITEM: TIMESTEP
0
ITEM: NUMBER OF ATOMS
5
ITEM: BOX BOUNDS ff ff ff
-5.00000000    5.00000000     
-5.00000000    5.00000000     
-5.00000000    5.00000000     
ITEM: ATOMS id type q x y z mux muy muz
      1   1    1.0000       4.060571      -1.401997      -4.370189      -0.459846       0.856731      -0.233568
      2   2   -1.0000       1.006258      -3.752098       2.965757      -0.455217      -0.301990      -0.837604
      3   1    1.0000       1.416911       3.747132       2.848576       0.692834       0.533058      -0.485625
      4   2   -1.0000      -3.878609      -1.188816       2.745882      -0.832921      -0.473130      -0.287038
      5   2   -1.0000      -0.826954       4.723902       2.357470       0.167284      -0.881093       0.442371
ITEM: TIMESTEP
100
ITEM: NUMBER OF ATOMS
5
ITEM: BOX BOUNDS ff ff ff
-5.00000000    5.00000000     
-5.00000000    5.00000000     
-5.00000000    5.00000000     
ITEM: ATOMS id type q x y z mux muy muz
      1   1    1.0000       4.098189      -1.433724      -4.404457      -0.183219       0.957859      -0.221217
      2   2   -1.0000       1.035524      -3.779583       2.945152      -0.402434      -0.283409      -0.870475
      3   1    1.0000       1.360926       3.734095       2.868908       0.717583       0.509630      -0.474713
      4   2   -1.0000      -3.853226      -1.141042       2.773791      -0.831699      -0.481563      -0.276357
      5   2   -1.0000      -0.863236       4.748377       2.364101       0.159023      -0.873239       0.460615
ITEM: TIMESTEP
200
ITEM: NUMBER OF ATOMS
5
ITEM: BOX BOUNDS ff ff ff
-5.00000000    5.00000000     
-5.00000000    5.00000000     
-5.00000000    5.00000000     
ITEM: ATOMS id type q x y z mux muy muz
      1   1    1.0000       4.135655      -1.465472      -4.438559       0.113245       0.975685      -0.187655
      2   2   -1.0000       1.065148      -3.807120       2.924518      -0.352134      -0.262469      -0.898394
      3   1    1.0000       1.303725       3.721514       2.889086       0.733641       0.493018      -0.467657
      4   2   -1.0000      -3.828049      -1.093214       2.801557      -0.829867      -0.490940      -0.265139
      5   2   -1.0000      -0.898302       4.772416       2.370894       0.136242      -0.866555       0.480126
ITEM: TIMESTEP
300
ITEM: NUMBER OF ATOMS
5
ITEM: BOX BOUNDS ff ff ff
-5.00000000    5.00000000     
-5.00000000    5.00000000     
-5.00000000    5.00000000     
ITEM: ATOMS id type q x y z mux muy muz
      1   1    1.0000       4.172961      -1.497231      -4.472493       0.401669       0.905713      -0.135452
      2   2   -1.0000       1.095117      -3.834708       2.903861      -0.305031      -0.239608      -0.921707
      3   1    1.0000       1.245323       3.709401       2.909089       0.742279       0.482886      -0.464589
      4   2   -1.0000      -3.803078      -1.045339       2.829179      -0.827372      -0.501194      -0.253497
      5   2   -1.0000      -0.932146       4.796001       2.377860       0.099290      -0.860198       0.500200
ITEM: TIMESTEP
400
ITEM: NUMBER OF ATOMS
5
ITEM: BOX BOUNDS ff ff ff
-5.00000000    5.00000000     
-5.00000000    5.00000000     
-5.00000000    5.00000000     
ITEM: ATOMS id type q x y z mux muy muz
      1   1    1.0000       4.210096      -1.528987      -4.506256       0.654259       0.753087      -0.069311
      2   2   -1.0000       1.125418      -3.862346       2.883188      -0.261661      -0.215227      -0.940856
      3   1    1.0000       1.185718       3.697777       2.928891       0.744298       0.478859      -0.465527
      4   2   -1.0000      -3.778310      -0.997423       2.856658      -0.824171      -0.512254      -0.241533
      5   2   -1.0000      -0.964744       4.819103       2.385015       0.048574      -0.852870       0.519859
ITEM: TIMESTEP
500
ITEM: NUMBER OF ATOMS
5
ITEM: BOX BOUNDS ff ff ff
-5.00000000    5.00000000     
-5.00000000    5.00000000     
-5.00000000    5.00000000     
ITEM: ATOMS id type q x y z mux muy muz
      1   1    1.0000       4.247050      -1.560727      -4.539840       0.846789       0.531910       0.004527
      2   2   -1.0000       1.156034      -3.890034       2.862505      -0.222396      -0.189677      -0.956328
      3   1    1.0000       1.124890       3.686678       2.948461       0.740096       0.480580      -0.470426
      4   2   -1.0000      -3.753744      -0.949475       2.883994      -0.820233      -0.524044      -0.229338
      5   2   -1.0000      -0.996054       4.841681       2.392377      -0.015360      -0.842894       0.537860
ITEM: TIMESTEP
600
ITEM: NUMBER OF ATOMS
5
ITEM: BOX BOUNDS ff ff ff
-5.00000000    5.00000000     
-5.00000000    5.00000000     
-5.00000000    5.00000000     
ITEM: ATOMS id type q x y z mux muy muz
      1   1    1.0000       4.283814      -1.592437      -4.573236       0.961443       0.263395       0.079062
      2   2   -1.0000       1.186949      -3.917770       2.841814      -0.187465      -0.163256      -0.968609
      3   1    1.0000       1.062801       3.676152       2.967762       0.729722       0.487734      -0.479189
      4   2   -1.0000      -3.729377      -0.901501       2.911186      -0.815534      -0.536488      -0.216991
      5   2   -1.0000      -1.026010       4.863680       2.399971      -0.091713      -0.828299       0.552730
ITEM: TIMESTEP
700
ITEM: NUMBER OF ATOMS
5
ITEM: BOX BOUNDS ff ff ff
-5.00000000    5.00000000     
-5.00000000    5.00000000     
-5.00000000    5.00000000     
ITEM: ATOMS id type q x y z mux muy muz
      1   1    1.0000       4.320377      -1.624101      -4.606433       0.988719      -0.026801       0.147365
      2   2   -1.0000       1.218144      -3.945554       2.821118      -0.156971      -0.136211      -0.978165
      3   1    1.0000       0.999393       3.666263       2.986752       0.712906       0.500040      -0.491655
      4   2   -1.0000      -3.705207      -0.853512       2.938231      -0.810062      -0.549506      -0.204558
      5   2   -1.0000      -1.054529       4.885028       2.407828      -0.179312      -0.806909       0.562800
ITEM: TIMESTEP
800
ITEM: NUMBER OF ATOMS
5
ITEM: BOX BOUNDS ff ff ff
-5.00000000    5.00000000     
-5.00000000    5.00000000     
-5.00000000    5.00000000     
ITEM: ATOMS id type q x y z mux muy muz
      1   1    1.0000       4.356725      -1.655702      -4.639412       0.928175      -0.311667       0.203360
      2   2   -1.0000       1.249595      -3.973380       2.800419      -0.130907      -0.108740      -0.985413
      3   1    1.0000       0.934591       3.657091       3.005383       0.689083       0.517230      -0.507580
      4   2   -1.0000      -3.681235      -0.805521       2.965124      -0.803811      -0.563019      -0.192087
      5   2   -1.0000      -1.081498       4.905635       2.415982      -0.276483      -0.776463       0.566270
ITEM: TIMESTEP
900
ITEM: NUMBER OF ATOMS
5
ITEM: BOX BOUNDS ff ff ff
-5.00000000    5.00000000     
-5.00000000    5.00000000     
-5.00000000    5.00000000     
ITEM: ATOMS id type q x y z mux muy muz
      1   1    1.0000       4.392844      -1.687219      -4.672155       0.788013      -0.565903       0.242464
      2   2   -1.0000       1.281276      -4.001243       2.779720      -0.109178      -0.080998      -0.990717
      3   1    1.0000       0.868295       3.648743       3.023597       0.657405       0.538999      -0.526591
      4   2   -1.0000      -3.657463      -0.757545       2.991856      -0.796784      -0.576952      -0.179614
      5   2   -1.0000      -1.106775       4.925387       2.424477      -0.380941      -0.734741       0.561285
ITEM: TIMESTEP
1000
ITEM: NUMBER OF ATOMS
5
ITEM: BOX BOUNDS ff ff ff
-5.00000000    5.00000000     
-5.00000000    5.00000000     
-5.00000000    5.00000000     
ITEM: ATOMS id type q x y z mux muy muz
      1   1    1.0000       4.428715      -1.718629      -4.704636       0.583648      -0.768583       0.261985
      2   2   -1.0000       1.313155      -4.029132       2.759028      -0.091619      -0.053104      -0.994377
      3   1    1.0000       0.800383       3.641353       3.041329       0.616758       0.564947      -0.548129
      4   2   -1.0000      -3.633896      -0.709608       3.018413      -0.788987      -0.591234      -0.167160
      5   2   -1.0000      -1.130180       4.944138       2.433361      -0.489699      -0.679727       0.546047
ITEM: TIMESTEP
1100
ITEM: NUMBER OF ATOMS
5
ITEM: BOX BOUNDS ff ff ff
-5.00000000    5.00000000     
-5.00000000    5.00000000     
-5.00000000    5.00000000     
ITEM: ATOMS id type q x y z mux muy muz
      1   1    1.0000       4.464313      -1.749904      -4.736825       0.335504      -0.905080       0.261279
      2   2   -1.0000       1.345193      -4.057029       2.738352      -0.078014      -0.025151      -0.996635
      3   1    1.0000       0.730710       3.635090       3.058497       0.565791       0.594490      -0.571368
      4   2   -1.0000      -3.610549      -0.661743       3.044776      -0.780428      -0.605795      -0.154738
      5   2   -1.0000      -1.151491       4.961709       2.442696      -0.599028      -0.609801       0.518949
ITEM: TIMESTEP
1200
ITEM: NUMBER OF ATOMS
5
ITEM: BOX BOUNDS ff ff ff
-5.00000000    5.00000000     
-5.00000000    5.00000000     
-5.00000000    5.00000000     
ITEM: ATOMS id type q x y z mux muy muz
      1   1    1.0000       4.499605      -1.781009      -4.768683       0.066407      -0.968090       0.241643
      2   2   -1.0000       1.377342      -4.084908       2.717707      -0.068108       0.002786      -0.997674
      3   1    1.0000       0.659104       3.630170       3.075006       0.502994       0.626751      -0.595130
      4   2   -1.0000      -3.587439      -0.613998       3.070915      -0.771120      -0.620573      -0.142349
      5   2   -1.0000      -1.170434       4.977869       2.452550      -0.704470      -0.523954       0.478743
ITEM: TIMESTEP
1300
ITEM: NUMBER OF ATOMS
5
ITEM: BOX BOUNDS ff ff ff
-5.00000000    5.00000000     
-5.00000000    5.00000000     
-5.00000000    5.00000000     
ITEM: ATOMS id type q x y z mux muy muz
      1   1    1.0000       4.534545      -1.811898      -4.800160      -0.201081      -0.957673       0.205983
      2   2   -1.0000       1.409539      -4.112734       2.697118      -0.061622       0.030646      -0.997629
      3   1    1.0000       0.585370       3.626865       3.090733       0.426826       0.660431      -0.617779
      4   2   -1.0000      -3.564598      -0.566437       3.096793      -0.761075      -0.635505      -0.129991
      5   2   -1.0000      -1.186679       4.992328       2.463011      -0.800947      -0.422010       0.424725
ITEM: TIMESTEP
1400
ITEM: NUMBER OF ATOMS
5
ITEM: BOX BOUNDS ff ff ff
-5.00000000    5.00000000     
-5.00000000    5.00000000     
-5.00000000    5.00000000     
ITEM: ATOMS id type q x y z mux muy muz
      1   1    1.0000       4.569070      -1.842511      -4.831191      -0.447022      -0.880399       0.158329
      2   2   -1.0000       1.441707      -4.140453       2.676622      -0.058266       0.058372      -0.996593
      3   1    1.0000       0.509296       3.625521       3.105529       0.335934       0.693682      -0.637145
      4   2   -1.0000      -3.542067      -0.519153       3.122356      -0.750309      -0.650533      -0.117660
      5   2   -1.0000      -1.199828       4.994919       2.474180      -0.882989      -0.304847       0.356930
ITEM: TIMESTEP
1500
ITEM: NUMBER OF ATOMS
5
ITEM: BOX BOUNDS ff ff ff
-5.00000000    5.00000000     
-5.00000000    5.00000000     
-5.00000000    5.00000000     
ITEM: ATOMS id type q x y z mux muy muz
      1   1    1.0000       4.603040      -1.872719      -4.861645      -0.655851      -0.747795       0.103255
      2   2   -1.0000       1.473692      -4.167949       2.656301      -0.057745       0.085916      -0.994628
      3   1    1.0000       0.430738       3.626574       3.119171       0.229288       0.724034      -0.650539
      4   2   -1.0000      -3.519941      -0.472344       3.147494      -0.738835      -0.665600      -0.105350
      5   2   -1.0000      -1.209352       4.980701       2.486175      -0.945099      -0.174574       0.276245
ITEM: TIMESTEP
1600
ITEM: NUMBER OF ATOMS
5
ITEM: BOX BOUNDS ff ff ff
-5.00000000    5.00000000     
-5.00000000    5.00000000     
-5.00000000    5.00000000     
ITEM: ATOMS id type q x y z mux muy muz
      1   1    1.0000       4.636233      -1.902321      -4.891316      -0.817290      -0.574439       0.045350
      2   2   -1.0000       1.505264      -4.195037       2.636292      -0.059767       0.113226      -0.991770
      3   1    1.0000       0.349623       3.630568       3.131344       0.106557       0.748285      -0.654764
      4   2   -1.0000      -3.498370      -0.426328       3.172036      -0.726673      -0.680651      -0.093064
      5   2   -1.0000      -1.214572       4.963807       2.499140      -0.982216      -0.034667       0.184528
ITEM: TIMESTEP
1700
ITEM: NUMBER OF ATOMS
5
ITEM: BOX BOUNDS ff ff ff
-5.00000000    5.00000000     
-5.00000000    5.00000000     
-5.00000000    5.00000000     
ITEM: ATOMS id type q x y z mux muy muz
      1   1    1.0000       4.668431      -1.931119      -4.920008      -0.926602      -0.375875      -0.011288
      2   2   -1.0000       1.536191      -4.221532       2.616730      -0.064049       0.140262      -0.988041
      3   1    1.0000       0.265773       3.638182       3.141668      -0.031131       0.762528      -0.646206
      4   2   -1.0000      -3.477501      -0.381416       3.195816      -0.713836      -0.695636      -0.080805
      5   2   -1.0000      -1.214717       4.943649       2.513290      -0.990299       0.110154       0.084693
ITEM: TIMESTEP
1800
ITEM: NUMBER OF ATOMS
5
ITEM: BOX BOUNDS ff ff ff
-5.00000000    5.00000000     
-5.00000000    5.00000000     
-5.00000000    5.00000000     
ITEM: ATOMS id type q x y z mux muy muz
      1   1    1.0000       4.699343      -1.958847      -4.947458      -0.983973      -0.166662      -0.063408
      2   2   -1.0000       1.566167      -4.247183       2.597802      -0.070329       0.167008      -0.983444
      3   1    1.0000       0.179109       3.650245       3.149642      -0.180595       0.762510      -0.621260
      4   2   -1.0000      -3.457526      -0.338031       3.218612      -0.700324      -0.710525      -0.068566
      5   2   -1.0000      -1.208916       4.919514       2.528898      -0.966941       0.254259      -0.019439
ITEM: TIMESTEP
1900
ITEM: NUMBER OF ATOMS
5
ITEM: BOX BOUNDS ff ff ff
-5.00000000    5.00000000     
-5.00000000    5.00000000     
-5.00000000    5.00000000     
ITEM: ATOMS id type q x y z mux muy muz
      1   1    1.0000       4.728577      -1.985150      -4.973319      -0.993217       0.041103      -0.108770
      2   2   -1.0000       1.594786      -4.271653       2.579754      -0.078378       0.193501      -0.977964
      3   1    1.0000       0.089745       3.667756       3.154611      -0.336201       0.744324      -0.577019
      4   2   -1.0000      -3.438702      -0.296736       3.240133      -0.686106      -0.725317      -0.056325
      5   2   -1.0000      -1.196229       4.890558       2.546316      -0.911804       0.391627      -0.123458
ITEM: TIMESTEP
2000
ITEM: NUMBER OF ATOMS
5
ITEM: BOX BOUNDS ff ff ff
-5.00000000    5.00000000     
-5.00000000    5.00000000     
-5.00000000    5.00000000     
ITEM: ATOMS id type q x y z mux muy muz
      1   1    1.0000       4.755632      -2.009573      -4.997154      -0.960064       0.238596      -0.146111
      2   2   -1.0000       1.621528      -4.294506       2.562911      -0.088026       0.219867      -0.971550
      3   1    1.0000      -0.001915       3.691887       3.155729      -0.489910       0.705441      -0.512192
      4   2   -1.0000      -3.421349      -0.258256       3.260012      -0.671098      -0.740060      -0.044028
      5   2   -1.0000      -1.175718       4.855807       2.565998      -0.826792       0.516491      -0.222827
ITEM: TIMESTEP
2100
ITEM: NUMBER OF ATOMS
5
ITEM: BOX BOUNDS ff ff ff
-5.00000000    5.00000000     
-5.00000000    5.00000000     
-5.00000000    5.00000000     
ITEM: ATOMS id type q x y z mux muy muz
      1   1    1.0000       4.779896      -2.031556      -4.981443      -0.890336       0.420358      -0.174932
      2   2   -1.0000       1.645754      -4.315204       2.547668      -0.099202       0.246362      -0.964087
      3   1    1.0000      -0.095073       3.723983       3.151912      -0.631990       0.646002      -0.428102
      4   2   -1.0000      -3.405855      -0.223481       3.277803      -0.655114      -0.754870      -0.031566
      5   2   -1.0000      -1.146545       4.814153       2.588545      -0.715887       0.623936      -0.313384
ITEM: TIMESTEP
2200
ITEM: NUMBER OF ATOMS
5
ITEM: BOX BOUNDS ff ff ff
-5.00000000    5.00000000     
-5.00000000    5.00000000     
-5.00000000    5.00000000     
ITEM: ATOMS id type q x y z mux muy muz
      1   1    1.0000       4.800675      -2.050461      -4.962901      -0.788136       0.583747      -0.195144
      2   2   -1.0000       1.666731      -4.333124       2.534482      -0.111987       0.273456      -0.955343
      3   1    1.0000      -0.188488       3.765594       3.141776      -0.752436       0.570248      -0.329632
      4   2   -1.0000      -3.392655      -0.193439       3.293004      -0.637808      -0.769968      -0.018735
      5   2   -1.0000      -1.108086       4.764321       2.614790      -0.584798       0.710302      -0.391769
ITEM: TIMESTEP
2300
ITEM: NUMBER OF ATOMS
5
ITEM: BOX BOUNDS ff ff ff
-5.00000000    5.00000000     
-5.00000000    5.00000000     
-5.00000000    5.00000000     
ITEM: ATOMS id type q x y z mux muy muz
      1   1    1.0000       4.817289      -2.065656      -4.947863      -0.653933       0.727801      -0.206584
      2   2   -1.0000       1.683723      -4.347639       2.523812      -0.126712       0.301970      -0.944859
      3   1    1.0000      -0.280790       3.818716       3.123443      -0.842837       0.488284      -0.226285
      4   2   -1.0000      -3.382167      -0.169157       3.305130      -0.618530      -0.785744      -0.005162
      5   2   -1.0000      -1.059878       4.704581       2.646064      -0.440864       0.773287      -0.455704
ITEM: TIMESTEP
2400
ITEM: NUMBER OF ATOMS
5
ITEM: BOX BOUNDS ff ff ff
-5.00000000    5.00000000     
-5.00000000    5.00000000     
-5.00000000    5.00000000     
ITEM: ATOMS id type q x y z mux muy muz
      1   1    1.0000       4.829215      -2.076643      -4.936868      -0.481943       0.851096      -0.208246
      2   2   -1.0000       1.696127      -4.358236       2.516034      -0.144146       0.333350      -0.931719
      3   1    1.0000      -0.371295       3.886500       3.094073      -0.897823       0.419321      -0.134478
      4   2   -1.0000      -3.374705      -0.151475       3.313813      -0.596067      -0.802874       0.009838
      5   2   -1.0000      -1.001165       4.632005       2.684777      -0.294738       0.811798      -0.504097
ITEM: TIMESTEP
2500
ITEM: NUMBER OF ATOMS
5
ITEM: BOX BOUNDS ff ff ff
-5.00000000    5.00000000     
-5.00000000    5.00000000     
-5.00000000    5.00000000     
ITEM: ATOMS id type q x y z mux muy muz
      1   1    1.0000       4.836655      -2.083574      -4.929818      -0.256782       0.946222      -0.196791
      2   2   -1.0000       1.704061      -4.365015       2.511069      -0.165777       0.370055      -0.914099
      3   1    1.0000      -0.402678       3.902207       3.089243      -0.913683       0.397765      -0.083467
      4   2   -1.0000      -3.370123      -0.140210       3.319212      -0.568177      -0.822447       0.027483
      5   2   -1.0000      -0.989736       4.613275       2.695487      -0.168864       0.826405      -0.537159
ITEM: TIMESTEP
2600
ITEM: NUMBER OF ATOMS
5
ITEM: BOX BOUNDS ff ff ff
-5.00000000    5.00000000     
-5.00000000    5.00000000     
-5.00000000    5.00000000     
ITEM: ATOMS id type q x y z mux muy muz
      1   1    1.0000       4.845752      -2.092162      -4.920937       0.026584       0.985677      -0.166537
      2   2   -1.0000       1.714033      -4.373532       2.504843      -0.192306       0.412890      -0.890247
      3   1    1.0000      -0.368563       3.837315       3.127395      -0.892417       0.441451      -0.093347
      4   2   -1.0000      -3.364614      -0.126119       3.325798      -0.533512      -0.844415       0.048252
      5   2   -1.0000      -1.048431       4.674431       2.664591      -0.096917       0.824293      -0.557806
ITEM: TIMESTEP
2700
ITEM: NUMBER OF ATOMS
5
ITEM: BOX BOUNDS ff ff ff
-5.00000000    5.00000000     
-5.00000000    5.00000000     
-5.00000000    5.00000000     
ITEM: ATOMS id type q x y z mux muy muz
      1   1    1.0000       4.857683      -2.103548      -4.909020       0.314875       0.941579      -0.119507
      2   2   -1.0000       1.727397      -4.384934       2.496516      -0.220179       0.455834      -0.862402
      3   1    1.0000      -0.357047       3.791126       3.154453      -0.844676       0.515835      -0.142959
      4   2   -1.0000      -3.357456      -0.107316       3.334430      -0.496436      -0.865302       0.069309
      5   2   -1.0000      -1.092399       4.715681       2.647118      -0.090693       0.817240      -0.569117
ITEM: TIMESTEP
2800
ITEM: NUMBER OF ATOMS
5
ITEM: BOX BOUNDS ff ff ff
-5.00000000    5.00000000     
-5.00000000    5.00000000     
-5.00000000    5.00000000     
ITEM: ATOMS id type q x y z mux muy muz
      1   1    1.0000       4.880123      -2.125126      -4.886270       0.568676       0.820208      -0.062179
      2   2   -1.0000       1.752894      -4.406667       2.480648      -0.247716       0.496264      -0.832081
      3   1    1.0000      -0.373171       3.746636       3.181324      -0.776782       0.593528      -0.210559
      4   2   -1.0000      -3.344054      -0.071556       3.350667      -0.459190      -0.883827       0.089413
      5   2   -1.0000      -1.137615       4.750846       2.638368      -0.140411       0.808824      -0.571041
ITEM: TIMESTEP
2900
ITEM: NUMBER OF ATOMS
5
ITEM: BOX BOUNDS ff ff ff
-5.00000000    5.00000000     
-5.00000000    5.00000000     
-5.00000000    5.00000000     
ITEM: ATOMS id type q x y z mux muy muz
      1   1    1.0000       4.909968      -2.153956      -4.855743       0.767997       0.640453      -0.000751
      2   2   -1.0000       1.787099      -4.435798       2.459372      -0.274499       0.533648      -0.799918
      3   1    1.0000      -0.419679       3.716032       3.201694      -0.694831       0.661487      -0.282216
      4   2   -1.0000      -3.326276      -0.023684       3.372262      -0.422425      -0.899901       0.108334
      5   2   -1.0000      -1.172934       4.769021       2.642183      -0.230456       0.795768      -0.560038
ITEM: TIMESTEP
3000
ITEM: NUMBER OF ATOMS
5
ITEM: BOX BOUNDS ff ff ff
-5.00000000    5.00000000     
-5.00000000    5.00000000     
-5.00000000    5.00000000     
ITEM: ATOMS id type q x y z mux muy muz
      1   1    1.0000       4.942270      -2.185283      -4.822454       0.904642       0.421925       0.060015
      2   2   -1.0000       1.824388      -4.467530       2.436183      -0.300580       0.568169      -0.766052
      3   1    1.0000      -0.490282       3.707966       3.211007      -0.604725       0.715526      -0.349758
      4   2   -1.0000      -3.307081       0.028406       3.395634      -0.386111      -0.913778       0.126203
      5   2   -1.0000      -1.191119       4.763609       2.659139      -0.344689       0.773486      -0.531892
ITEM: TIMESTEP
3100
ITEM: NUMBER OF ATOMS
5
ITEM: BOX BOUNDS ff ff ff
-5.00000000    5.00000000     
-5.00000000    5.00000000     
-5.00000000    5.00000000     
ITEM: ATOMS id type q x y z mux muy muz
      1   1    1.0000       4.972418      -2.214635      -4.791153       0.976492       0.181219       0.116716
      2   2   -1.0000       1.859440      -4.497332       2.414382      -0.326191       0.600240      -0.730282
      3   1    1.0000      -0.575266       3.727347       3.206670      -0.511185       0.756268      -0.408348
      4   2   -1.0000      -3.289226       0.077278       3.417437      -0.349858      -0.925778       0.143299
      5   2   -1.0000      -1.189188       4.731625       2.688093      -0.466804       0.740112      -0.484074
ITEM: TIMESTEP
3200
ITEM: NUMBER OF ATOMS
5
ITEM: BOX BOUNDS ff ff ff
-5.00000000    5.00000000     
-5.00000000    5.00000000     
-5.00000000    5.00000000     
ITEM: ATOMS id type q x y z mux muy muz
      1   1    1.0000       4.996722      -2.238406      -4.765693       0.983558      -0.068919       0.166925
      2   2   -1.0000       1.887934      -4.521530       2.396652      -0.351705       0.630392      -0.692033
      3   1    1.0000      -0.664437       3.777418       3.186973      -0.417182       0.787000      -0.454523
      4   2   -1.0000      -3.274915       0.116913       3.434997      -0.312955      -0.936195       0.159994
      5   2   -1.0000      -1.167126       4.671374       2.727744      -0.578916       0.700107      -0.417979
ITEM: TIMESTEP
3300
ITEM: NUMBER OF ATOMS
5
ITEM: BOX BOUNDS ff ff ff
-5.00000000    5.00000000     
-5.00000000    5.00000000     
-5.00000000    5.00000000     
ITEM: ATOMS id type q x y z mux muy muz
      1   1    1.0000       4.987115      -2.254255      -4.748610       0.924368      -0.319384       0.208657
      2   2   -1.0000       1.907031      -4.537723       2.384753      -0.377696       0.659303      -0.650127
      3   1    1.0000      -0.732291       3.830925       3.165683      -0.324194       0.812445      -0.484595
      4   2   -1.0000      -3.265543       0.143382       3.446609      -0.274218      -0.945276       0.176800
      5   2   -1.0000      -1.143843       4.611111       2.762367      -0.658687       0.669768      -0.342846
ITEM: TIMESTEP
3400
ITEM: NUMBER OF ATOMS
5
ITEM: BOX BOUNDS ff ff ff
-5.00000000    5.00000000     
-5.00000000    5.00000000     
-5.00000000    5.00000000     
ITEM: ATOMS id type q x y z mux muy muz
      1   1    1.0000       4.956193      -2.284471      -4.715841       0.792422      -0.561134       0.239156
      2   2   -1.0000       1.943617      -4.568695       2.361923      -0.404895       0.687656      -0.602653
      3   1    1.0000      -0.762167       3.764139       3.215796      -0.235930       0.834653      -0.497686
      4   2   -1.0000      -3.248011       0.193901       3.468577      -0.232037      -0.953101       0.194313
      5   2   -1.0000      -1.198605       4.665087       2.737726      -0.684408       0.673081      -0.280264
ITEM: TIMESTEP
3500
ITEM: NUMBER OF ATOMS
5
ITEM: BOX BOUNDS ff ff ff
-5.00000000    5.00000000     
-5.00000000    5.00000000     
-5.00000000    5.00000000     
ITEM: ATOMS id type q x y z mux muy muz
      1   1    1.0000       4.933353      -2.306721      -4.691582       0.588126      -0.768135       0.253132
      2   2   -1.0000       1.970661      -4.591556       2.345014      -0.432603       0.714490      -0.549871
      3   1    1.0000      -0.788904       3.734596       3.241475      -0.163147       0.849327      -0.502022
      4   2   -1.0000      -3.235298       0.231121       3.484659      -0.187019      -0.959173       0.212160
      5   2   -1.0000      -1.233991       4.685243       2.730832      -0.662896       0.706922      -0.246638
ITEM: TIMESTEP
3600
ITEM: NUMBER OF ATOMS
5
ITEM: BOX BOUNDS ff ff ff
-5.00000000    5.00000000     
-5.00000000    5.00000000     
-5.00000000    5.00000000     
ITEM: ATOMS id type q x y z mux muy muz
      1   1    1.0000       4.900271      -2.338852      -4.656356       0.329512      -0.911247       0.247084
      2   2   -1.0000       2.009859      -4.624638       2.320447      -0.459514       0.738398      -0.493575
      3   1    1.0000      -0.854581       3.755077       3.242183      -0.120120       0.855201      -0.504184
      4   2   -1.0000      -3.217215       0.284874       3.507762      -0.140897      -0.963031       0.229609
      5   2   -1.0000      -1.257749       4.651292       2.757286      -0.605989       0.756303      -0.246542
ITEM: TIMESTEP
3700
ITEM: NUMBER OF ATOMS
5
ITEM: BOX BOUNDS ff ff ff
-5.00000000    5.00000000     
-5.00000000    5.00000000     
-5.00000000    5.00000000     
ITEM: ATOMS id type q x y z mux muy muz
      1   1    1.0000       4.874206      -2.364100      -4.628525       0.043747      -0.974199       0.221410
      2   2   -1.0000       2.040760      -4.650675       2.301024      -0.484831       0.758668      -0.435157
      3   1    1.0000      -0.915646       3.790600       3.229071      -0.121538       0.852948      -0.507649
      4   2   -1.0000      -3.203235       0.327067       3.525824      -0.094712      -0.964555       0.246299
      5   2   -1.0000      -1.266722       4.605287       2.791763      -0.518505       0.806763      -0.283346
ITEM: TIMESTEP
3800
ITEM: NUMBER OF ATOMS
5
ITEM: BOX BOUNDS ff ff ff
-5.00000000    5.00000000     
-5.00000000    5.00000000     
-5.00000000    5.00000000     
ITEM: ATOMS id type q x y z mux muy muz
      1   1    1.0000       4.841211      -2.395978      -4.593184      -0.235998      -0.954893       0.180234
      2   2   -1.0000       2.079897      -4.683596       2.276339      -0.507784       0.774825      -0.376565
      3   1    1.0000      -0.954231       3.738049       3.260502      -0.175191       0.842666      -0.509139
      4   2   -1.0000      -3.185904       0.380239       3.548505      -0.049737      -0.963817       0.261883
      5   2   -1.0000      -1.316235       4.644769       2.787346      -0.411257       0.841860      -0.349484
ITEM: TIMESTEP
3900
ITEM: NUMBER OF ATOMS
5
ITEM: BOX BOUNDS ff ff ff
-5.00000000    5.00000000     
-5.00000000    5.00000000     
-5.00000000    5.00000000     
ITEM: ATOMS id type q x y z mux muy muz