ITEM: TIMESTEP
0
ITEM: NUMBER OF ATOMS
5
ITEM: BOX BOUNDS ff ff ff
-5.00000000    5.00000000     
-5.00000000    5.00000000     
-5.00000000    5.00000000     
ITEM: ATOMS id type q x y z mux muy muz
      1   1    1.0000       2.695761       4.621200       2.797204       0.015898       0.710108       0.703914
      2   2   -1.0000       3.748683       2.064970       2.605005       0.142329       0.320553       0.936477
      3   1    1.0000       0.231890       4.242189       3.250193      -0.227278      -0.668010       0.708595
      4   2   -1.0000       3.438958       1.730271      -1.954530      -0.450642       0.888353       0.088039
      5   2   -1.0000      -4.643543       4.356440       0.860884       0.625670       0.723223       0.292379
ITEM: TIMESTEP
100
ITEM: NUMBER OF ATOMS
5
ITEM: BOX BOUNDS ff ff ff
-5.00000000    5.00000000     
-5.00000000    5.00000000     
-5.00000000    5.00000000     
ITEM: ATOMS id type q x y z mux muy muz
      1   1    1.0000       2.672147       4.665983       2.882780       0.051942       0.659363       0.750028
      2   2   -1.0000       3.734862       2.032684       2.604186       0.111756       0.258612       0.959495
      3   1    1.0000       0.242590       4.222847       3.230450      -0.216626      -0.667513       0.712390
      4   2   -1.0000       3.449768       1.748243      -1.987729      -0.452736       0.887334       0.087569
      5   2   -1.0000      -4.627618       4.345312       0.829069       0.631730       0.715700       0.297810
ITEM: TIMESTEP
200
ITEM: NUMBER OF ATOMS
5
ITEM: BOX BOUNDS ff ff ff
-5.00000000    5.00000000     
-5.00000000    5.00000000     
-5.00000000    5.00000000     
ITEM: ATOMS id type q x y z mux muy muz
      1   1    1.0000       2.649263       4.711324       2.967909       0.098396       0.608775       0.787217
      2   2   -1.0000       3.720672       2.000860       2.604668       0.082021       0.175699       0.981021
      3   1    1.0000       0.252661       4.202390       3.210347      -0.215771      -0.675612       0.704976
      4   2   -1.0000       3.460648       1.766270      -2.021475      -0.455358       0.885630       0.091151
      5   2   -1.0000      -4.611495       4.334227       0.797307       0.638666       0.707571       0.302407
ITEM: TIMESTEP
300
ITEM: NUMBER OF ATOMS
5
ITEM: BOX BOUNDS ff ff ff
-5.00000000    5.00000000     
-5.00000000    5.00000000     
-5.00000000    5.00000000     
ITEM: ATOMS id type q x y z mux muy muz
      1   1    1.0000       2.627179       4.757183       3.052599       0.154816       0.558991       0.814593
      2   2   -1.0000       3.706096       1.969529       2.606482       0.053900       0.069946       0.996094
      3   1    1.0000       0.262067       4.180831       3.189800      -0.225884      -0.694312       0.683307
      4   2   -1.0000       3.471593       1.784339      -2.055743      -0.458543       0.883074       0.099596
      5   2   -1.0000      -4.595186       4.323188       0.765618       0.646531       0.698905       0.305826
ITEM: TIMESTEP
400
ITEM: NUMBER OF ATOMS
5
ITEM: BOX BOUNDS ff ff ff
-5.00000000    5.00000000     
-5.00000000    5.00000000     
-5.00000000    5.00000000     
ITEM: ATOMS id type q x y z mux muy muz
      1   1    1.0000       2.605923       4.803479       3.136862       0.220006       0.510456       0.831283
      2   2   -1.0000       3.691113       1.938738       2.609660       0.028462      -0.057906       0.997916
      3   1    1.0000       0.270819       4.158218       3.168709      -0.246826      -0.724037       0.644086
      4   2   -1.0000       3.482600       1.802436      -2.090500      -0.462237       0.879457       0.113542
      5   2   -1.0000      -4.578706       4.312199       0.734024       0.655265       0.689889       0.307702
ITEM: TIMESTEP
500
ITEM: NUMBER OF ATOMS
5
ITEM: BOX BOUNDS ff ff ff
-5.00000000    5.00000000     
-5.00000000    5.00000000     
-5.00000000    5.00000000     
ITEM: ATOMS id type q x y z mux muy muz
      1   1    1.0000       2.585481       4.850096       3.220713       0.291995       0.463390       0.836665
      2   2   -1.0000       3.675690       1.908537       2.614224       0.006977      -0.203578       0.979034
      3   1    1.0000       0.278980       4.134627       3.146980      -0.276738      -0.762873       0.584329
      4   2   -1.0000       3.493661       1.820545      -2.125706      -0.466272       0.874546       0.133265
      5   2   -1.0000      -4.562064       4.301265       0.702544       0.664680       0.680821       0.307707
ITEM: TIMESTEP
600
ITEM: NUMBER OF ATOMS
5
ITEM: BOX BOUNDS ff ff ff
-5.00000000    5.00000000     
-5.00000000    5.00000000     
-5.00000000    5.00000000     
ITEM: ATOMS id type q x y z mux muy muz
      1   1    1.0000       2.565804       4.896887       3.304168       0.368322       0.417721       0.830571
      2   2   -1.0000       3.659780       1.878984       2.620187      -0.009328      -0.359527       0.933088
      3   1    1.0000       0.286656       4.110157       3.124531      -0.312109      -0.806515       0.502117
      4   2   -1.0000       3.504774       1.838656      -2.161324      -0.470381       0.868093       0.158609
      5   2   -1.0000      -4.545266       4.290385       0.671193       0.674498       0.672048       0.305620
ITEM: TIMESTEP
700
ITEM: NUMBER OF ATOMS
5
ITEM: BOX BOUNDS ff ff ff
-5.00000000    5.00000000     
-5.00000000    5.00000000     
-5.00000000    5.00000000     
ITEM: ATOMS id type q x y z mux muy muz
      1   1    1.0000       2.546824       4.943692       3.387246       0.446428       0.373086       0.813332
      2   2   -1.0000       3.643323       1.850140       2.627545      -0.019493      -0.516241       0.856222
      3   1    1.0000       0.293978       4.084915       3.101309      -0.348360      -0.849021       0.397252
      4   2   -1.0000       3.515937       1.856765      -2.197320      -0.474246       0.859854       0.189053
      5   2   -1.0000      -4.528313       4.279557       0.639976       0.684418       0.663901       0.301342
ITEM: TIMESTEP
800
ITEM: NUMBER OF ATOMS
5
ITEM: BOX BOUNDS ff ff ff
-5.00000000    5.00000000     
-5.00000000    5.00000000     
-5.00000000    5.00000000     
ITEM: ATOMS id type q x y z mux muy muz
      1   1    1.0000       2.528469       4.990356       3.469966       0.523956       0.328905       0.785679
      2   2   -1.0000       3.626244       1.822064       2.636278      -0.022954      -0.663740       0.747611
      3   1    1.0000       0.301083       4.058998       3.077290      -0.380643      -0.883956       0.271538
      4   2   -1.0000       3.527149       1.874875      -2.233665      -0.477551       0.849608       0.223857
      5   2   -1.0000      -4.511197       4.268776       0.608887       0.694166       0.656645       0.294875
ITEM: TIMESTEP
900
ITEM: NUMBER OF ATOMS
5
ITEM: BOX BOUNDS ff ff ff
-5.00000000    5.00000000     
-5.00000000    5.00000000     
-5.00000000    5.00000000     
ITEM: ATOMS id type q x y z mux muy muz
      1   1    1.0000       2.510681       4.962966       3.552351       0.598944       0.284466       0.748562
      2   2   -1.0000       3.608463       1.794819       2.646345      -0.019558      -0.792712       0.609283
      3   1    1.0000       0.308099       4.032480       3.052480      -0.404564      -0.905419       0.128627
      4   2   -1.0000       3.538412       1.892994      -2.270334      -0.480012       0.837160       0.262205
      5   2   -1.0000      -4.493906       4.258035       0.577914       0.703514       0.650468       0.286285
ITEM: TIMESTEP
1000
ITEM: NUMBER OF ATOMS
5
ITEM: BOX BOUNDS ff ff ff
-5.00000000    5.00000000     
-5.00000000    5.00000000     
-5.00000000    5.00000000     
ITEM: ATOMS id type q x y z mux muy muz
      1   1    1.0000       2.493461       4.915720       3.634212       0.670096       0.238971       0.702755
      2   2   -1.0000       3.589938       1.768549       2.657685      -0.009512      -0.895192       0.445580
      3   1    1.0000       0.315115       4.005483       3.026960      -0.416596      -0.908708      -0.026397
      4   2   -1.0000       3.549700       1.911094      -2.307215      -0.481404       0.822361       0.303269
      5   2   -1.0000      -4.476466       4.247351       0.547113       0.712280       0.645497       0.275665
ITEM: TIMESTEP
1100
ITEM: NUMBER OF ATOMS
5
ITEM: BOX BOUNDS ff ff ff
-5.00000000    5.00000000     
-5.00000000    5.00000000     
-5.00000000    5.00000000     
ITEM: ATOMS id type q x y z mux muy muz
      1   1    1.0000       2.476812       4.867765       3.715440       0.736293       0.191623       0.648963
      2   2   -1.0000       3.570616       1.743383       2.670235       0.006626      -0.964814       0.262850
      3   1    1.0000       0.322206       3.978082       3.000805      -0.414250      -0.890671      -0.187358
      4   2   -1.0000       3.561000       1.929167      -2.344232      -0.481558       0.805112       0.346261
      5   2   -1.0000      -4.458886       4.236731       0.516508       0.720311       0.641812       0.263115
ITEM: TIMESTEP
1200
ITEM: NUMBER OF ATOMS
5
ITEM: BOX BOUNDS ff ff ff
-5.00000000    5.00000000     
-5.00000000    5.00000000     
-5.00000000    5.00000000     
ITEM: ATOMS id type q x y z mux muy muz
      1   1    1.0000       2.460737       4.818966       3.795977       0.796419       0.141659       0.587920
      2   2   -1.0000       3.550438       1.719443       2.683918       0.027994      -0.997231       0.068892
      3   1    1.0000       0.329430       3.950307       2.974095      -0.396197      -0.849796      -0.347670
      4   2   -1.0000       3.572305       1.947219      -2.381334      -0.480366       0.785332       0.390515
      5   2   -1.0000      -4.441161       4.226175       0.486100       0.727493       0.639448       0.248716
ITEM: TIMESTEP
1300
ITEM: NUMBER OF ATOMS
5
ITEM: BOX BOUNDS ff ff ff
-5.00000000    5.00000000     
-5.00000000    5.00000000     
-5.00000000    5.00000000     
ITEM: ATOMS id type q x y z mux muy muz
      1   1    1.0000       2.445252       4.769205       3.875777       0.849338       0.088383       0.520398
      2   2   -1.0000       3.529362       1.696859       2.698645       0.053487      -0.990381      -0.127611
      3   1    1.0000       0.336818       3.922159       2.946916      -0.362248      -0.786058      -0.500889
      4   2   -1.0000       3.583606       1.965258      -2.418474      -0.477760       0.762937       0.435513
      5   2   -1.0000      -4.423289       4.215685       0.455891       0.733736       0.638412       0.232513
ITEM: TIMESTEP
1400
ITEM: NUMBER OF ATOMS
5
ITEM: BOX BOUNDS ff ff ff
-5.00000000    5.00000000     
-5.00000000    5.00000000     
-5.00000000    5.00000000     
ITEM: ATOMS id type q x y z mux muy muz
      1   1    1.0000       2.430382       4.718389       3.954810       0.893881       0.031210       0.447217
      2   2   -1.0000       3.507365       1.675763       2.714312       0.081843      -0.944640      -0.317738
      3   1    1.0000       0.344373       3.893618       2.919357      -0.313227      -0.700635      -0.641092
      4   2   -1.0000       3.594897       1.983292      -2.455605      -0.473699       0.737805       0.480888
      5   2   -1.0000      -4.405269       4.205264       0.425881       0.738961       0.638690       0.214506
ITEM: TIMESTEP
1500
ITEM: NUMBER OF ATOMS
5
ITEM: BOX BOUNDS ff ff ff
-5.00000000    5.00000000     
-5.00000000    5.00000000     
-5.00000000    5.00000000     
ITEM: ATOMS id type q x y z mux muy muz
      1   1    1.0000       2.416160       4.666444       4.033058       0.928827      -0.030295       0.369273
      2   2   -1.0000       3.484446       1.656284       2.730808       0.111745      -0.862806      -0.493031
      3   1    1.0000       0.352075       3.864647       2.891498      -0.250790      -0.595617      -0.763115
      4   2   -1.0000       3.606169       2.001329      -2.492681      -0.468141       0.709744       0.526410
      5   2   -1.0000      -4.387101       4.194919       0.396073       0.743093       0.640256       0.194640
ITEM: TIMESTEP
1600
ITEM: NUMBER OF ATOMS
5
ITEM: BOX BOUNDS ff ff ff
-5.00000000    5.00000000     
-5.00000000    5.00000000     
-5.00000000    5.00000000     
ITEM: ATOMS id type q x y z mux muy muz
      1   1    1.0000       2.402621       4.613320       4.110517       0.952898      -0.096369       0.287573
      2   2   -1.0000       3.460628       1.638549       2.748019       0.141932      -0.749863      -0.646190
      3   1    1.0000       0.359876       3.835205       2.863406      -0.177257      -0.473740      -0.862642
      4   2   -1.0000       3.617414       2.019372      -2.529660      -0.461026       0.678467       0.571959
      5   2   -1.0000      -4.368790       4.184655       0.366473       0.746050       0.643077       0.172804
ITEM: TIMESTEP
1700
ITEM: NUMBER OF ATOMS
5
ITEM: BOX BOUNDS ff ff ff
-5.00000000    5.00000000     
-5.00000000    5.00000000     
-5.00000000    5.00000000     
ITEM: ATOMS id type q x y z mux muy muz
      1   1    1.0000       2.389799       4.558979       4.187195       0.964773      -0.166994       0.203286
      2   2   -1.0000       3.435960       1.622672       2.765836       0.171323      -0.612520      -0.771666
      3   1    1.0000       0.367710       3.805261       2.835131      -0.095449      -0.338213      -0.936217
      4   2   -1.0000       3.628624       2.037424      -2.566497      -0.452249       0.643558       0.617497
      5   2   -1.0000      -4.350345       4.174483       0.337092       0.747731       0.647108       0.148827
ITEM: TIMESTEP
1800
ITEM: NUMBER OF ATOMS
5
ITEM: BOX BOUNDS ff ff ff
-5.00000000    5.00000000     
-5.00000000    5.00000000     
-5.00000000    5.00000000     
ITEM: ATOMS id type q x y z mux muy muz
      1   1    1.0000       2.377731       4.503397       4.263105       0.963141      -0.241840       0.117787
      2   2   -1.0000       3.410513       1.608756       2.784155       0.199110      -0.458586      -0.866057
      3   1    1.0000       0.375494       3.774798       2.806701      -0.008572      -0.192608      -0.981238
      4   2   -1.0000       3.639789       2.055481      -2.603148      -0.441645       0.604453       0.663013
      5   2   -1.0000      -4.331778       4.164414       0.307942       0.748004       0.652295       0.122478
ITEM: TIMESTEP
1900
ITEM: NUMBER OF ATOMS
5
ITEM: BOX BOUNDS ff ff ff
-5.00000000    5.00000000     
-5.00000000    5.00000000     
-5.00000000    5.00000000     
ITEM: ATOMS id type q x y z mux muy muz
      1   1    1.0000       2.366451       4.446554       4.338269       0.946781      -0.320212       0.032704
      2   2   -1.0000       3.384374       1.596885       2.802886       0.224839      -0.296257      -0.928267
      3   1    1.0000       0.383130       3.743826       2.778126       0.079893      -0.040814      -0.995968
      4   2   -1.0000       3.650900       2.073536      -2.639568      -0.428962       0.560416       0.708467
      5   2   -1.0000      -4.313106       4.154461       0.279043       0.746701       0.658560       0.093467
ITEM: TIMESTEP
2000
ITEM: NUMBER OF ATOMS
5
ITEM: BOX BOUNDS ff ff ff
-5.00000000    5.00000000     
-5.00000000    5.00000000     
-5.00000000    5.00000000     
ITEM: ATOMS id type q x y z mux muy muz
      1   1    1.0000       2.355994       4.388433       4.412705       0.914703      -0.401013      -0.050066
      2   2   -1.0000       3.357642       1.587124       2.821956       0.248446      -0.133426      -0.959412
      3   1    1.0000       0.390511       3.712384       2.749392       0.166291       0.112983      -0.979583
      4   2   -1.0000       3.661948       2.091578      -2.675713      -0.413846       0.510534       0.753715
      5   2   -1.0000      -4.294347       4.144640       0.250416       0.743601       0.665793       0.061456
ITEM: TIMESTEP
2100
ITEM: NUMBER OF ATOMS
5
ITEM: BOX BOUNDS ff ff ff
-5.00000000    5.00000000     
-5.00000000    5.00000000     
-5.00000000    5.00000000     
ITEM: ATOMS id type q x y z mux muy muz
      1   1    1.0000       2.346397       4.329020       4.486433       0.866304      -0.482738      -0.128381
      2   2   -1.0000       3.330426       1.579517       2.841308       0.270264       0.022898      -0.962514
      3   1    1.0000       0.397528       3.680540       2.720469       0.246923       0.264349      -0.932281
      4   2   -1.0000       3.672923       2.109592      -2.711541      -0.395822       0.453725       0.798410
      5   2   -1.0000      -4.275526       4.134964       0.222087       0.738423       0.673833       0.026067
ITEM: TIMESTEP
2200
ITEM: NUMBER OF ATOMS
5
ITEM: BOX BOUNDS ff ff ff
-5.00000000    5.00000000     
-5.00000000    5.00000000     
-5.00000000    5.00000000     
ITEM: ATOMS id type q x y z mux muy muz
      1   1    1.0000       2.337698       4.268301       4.559467       0.801549      -0.563515      -0.199925
      2   2   -1.0000       3.302832       1.574092       2.860904       0.290988       0.166996      -0.942039
      3   1    1.0000       0.404068       3.648383       2.691310       0.318211       0.408698      -0.855399
      4   2   -1.0000       3.683817       2.127560      -2.747008      -0.374288       0.388762       0.841886
      5   2   -1.0000      -4.256666       4.125450       0.194083       0.730815       0.682450      -0.013094
ITEM: TIMESTEP
2300
ITEM: NUMBER OF ATOMS
5
ITEM: BOX BOUNDS ff ff ff
-5.00000000    5.00000000     
-5.00000000    5.00000000     
-5.00000000    5.00000000     
ITEM: ATOMS id type q x y z mux muy muz
      1   1    1.0000       2.329934       4.206265       4.631810       0.721139      -0.641200      -0.262336
      2   2   -1.0000       3.274965       1.570858       2.880728       0.311625       0.294630      -0.903373
      3   1    1.0000       0.410024       3.616025       2.661856       0.376906       0.541467      -0.751502
      4   2   -1.0000       3.694621       2.145460      -2.782074      -0.348513       0.314356       0.883017
      5   2   -1.0000      -4.237794       4.116114       0.166435       0.720347       0.691317      -0.056402
ITEM: TIMESTEP
2400
ITEM: NUMBER OF ATOMS
5
ITEM: BOX BOUNDS ff ff ff
-5.00000000    5.00000000     
-5.00000000    5.00000000     
-5.00000000    5.00000000     
ITEM: ATOMS id type q x y z mux muy muz
      1   1    1.0000       2.323143       4.142912       4.703460       0.626629      -0.713527      -0.313394
      2   2   -1.0000       3.246919       1.569810       2.900778       0.333413       0.403041      -0.852288
      3   1    1.0000       0.415298       3.583580       2.632041       0.420326       0.658369      -0.624401
      4   2   -1.0000       3.705327       2.163269      -2.816697      -0.317665       0.229287       0.920063
      5   2   -1.0000      -4.218937       4.106969       0.139174       0.706515       0.699990      -0.104166
ITEM: TIMESTEP
2500
ITEM: NUMBER OF ATOMS
5
ITEM: BOX BOUNDS ff ff ff
-5.00000000    5.00000000     
-5.00000000    5.00000000     
-5.00000000    5.00000000     
ITEM: ATOMS id type q x y z mux muy muz
      1   1    1.0000       2.317358       4.078248       4.774397       0.520460      -0.778304      -0.351233
      2   2   -1.0000       3.218779       1.570936       2.921074       0.357720       0.490766      -0.794471
      3   1    1.0000       0.419806       3.551162       2.601794       0.446591       0.755696      -0.479041
      4   2   -1.0000       3.715926       2.180965      -2.850842      -0.280876       0.132625       0.950536
      5   2   -1.0000      -4.200120       4.098029       0.112333       0.688754       0.707888      -0.156563
ITEM: TIMESTEP
2600
ITEM: NUMBER OF ATOMS
5
ITEM: BOX BOUNDS ff ff ff
-5.00000000    5.00000000     
-5.00000000    5.00000000     
-5.00000000    5.00000000     
ITEM: ATOMS id type q x y z mux muy muz
      1   1    1.0000       2.312604       4.012296       4.844587       0.405889      -0.833641      -0.374562
      2   2   -1.0000       3.190618       1.574216       2.941650       0.385932       0.557337      -0.735141
      3   1    1.0000       0.423483       3.518871       2.571047       0.454816       0.830632      -0.321237
      4   2   -1.0000       3.726412       2.198525      -2.884473      -0.237358       0.024046       0.971125
      5   2   -1.0000      -4.181368       4.089306       0.085946       0.666470       0.714288      -0.213565
ITEM: TIMESTEP
2700
ITEM: NUMBER OF ATOMS
5
ITEM: BOX BOUNDS ff ff ff
-5.00000000    5.00000000     
-5.00000000    5.00000000     
-5.00000000    5.00000000     
ITEM: ATOMS id type q x y z mux muy muz
      1   1    1.0000       2.308898       3.945094       4.913977       0.286791      -0.878163      -0.382858
      2   2   -1.0000       3.162488       1.579632       2.962561       0.419291       0.602910      -0.678745
      3   1    1.0000       0.426289       3.486782       2.539734       0.445217       0.881504      -0.157264
      4   2   -1.0000       3.736778       2.215926      -2.917560      -0.186573      -0.095785       0.977761
      5   2   -1.0000      -4.162704       4.080810       0.060043       0.639095       0.718340      -0.274855
ITEM: TIMESTEP
2800
ITEM: NUMBER OF ATOMS
5
ITEM: BOX BOUNDS ff ff ff
-5.00000000    5.00000000     
-5.00000000    5.00000000     
-5.00000000    5.00000000     
ITEM: ATOMS id type q x y z mux muy muz
      1   1    1.0000       2.306240       3.876694       4.982492       0.167354      -0.911182      -0.376484
      2   2   -1.0000       3.134425       1.587166       2.983879       0.458717       0.627887      -0.628758
      3   1    1.0000       0.428211       3.454943       2.507802       0.419091       0.907920       0.006667
      4   2   -1.0000       3.747019       2.233150      -2.950075      -0.128460      -0.224824       0.965895
      5   2   -1.0000      -4.144146       4.072547       0.034657       0.606158       0.719112      -0.339781
ITEM: TIMESTEP
2900
ITEM: NUMBER OF ATOMS
5
ITEM: BOX BOUNDS ff ff ff
-5.00000000    5.00000000     
-5.00000000    5.00000000     
-5.00000000    5.00000000     
ITEM: ATOMS id type q x y z mux muy muz
      1   1    1.0000       2.304628       3.807149       4.949995       0.051755      -0.932810      -0.356634
      2   2   -1.0000       3.106443       1.596817       3.005695       0.504628       0.632527      -0.587589
      3   1    1.0000       0.429258       3.423372       2.475201       0.378609       0.910745       0.164919
      4   2   -1.0000       3.757129       2.250182      -2.981997      -0.063644      -0.359373       0.931021
      5   2   -1.0000      -4.125709       4.064521       0.009817       0.567362       0.715670      -0.407330
ITEM: TIMESTEP
3000
ITEM: NUMBER OF ATOMS
5
ITEM: BOX BOUNDS ff ff ff
-5.00000000    5.00000000     
-5.00000000    5.00000000     
-5.00000000    5.00000000     
ITEM: ATOMS id type q x y z mux muy muz
      1   1    1.0000       2.304123       3.736386       4.883623      -0.055757      -0.944168      -0.324712
      2   2   -1.0000       3.078519       1.608685       3.028104       0.557073       0.616147      -0.556806
      3   1    1.0000       0.429404       3.392098       2.441856       0.326126       0.892115       0.312686
      4   2   -1.0000       3.767106       2.267009      -3.013309       0.006417      -0.494103       0.869380
      5   2   -1.0000      -4.107403       4.056734      -0.014452       0.522629       0.707174      -0.476197
ITEM: TIMESTEP
3100
ITEM: NUMBER OF ATOMS
5
ITEM: BOX BOUNDS ff ff ff
-5.00000000    5.00000000     
-5.00000000    5.00000000     
-5.00000000    5.00000000     
ITEM: ATOMS id type q x y z mux muy muz
      1   1    1.0000       2.304822       3.664356       4.818474      -0.151307      -0.947239      -0.282566
      2   2   -1.0000       3.050640       1.622934       3.051197       0.615263       0.577163      -0.536967
      3   1    1.0000       0.428617       3.361192       2.407738       0.264127       0.854997       0.446337
      4   2   -1.0000       3.776930       2.283596      -3.043947       0.079391      -0.622305       0.778738
      5   2   -1.0000      -4.089260       4.049194      -0.038087       0.472160       0.692970      -0.544846
ITEM: TIMESTEP
3200
ITEM: NUMBER OF ATOMS
5
ITEM: BOX BOUNDS ff ff ff
-5.00000000    5.00000000     
-5.00000000    5.00000000     
-5.00000000    5.00000000     
ITEM: ATOMS id type q x y z mux muy muz
      1   1    1.0000       2.306821       3.591051       4.754601      -0.231763      -0.944522      -0.232732
      2   2   -1.0000       3.022774       1.639756       3.075091       0.676865       0.513507      -0.527414
      3   1    1.0000       0.426906       3.330733       2.372878       0.195293       0.802703       0.563497
      4   2   -1.0000       3.786576       2.299893      -3.073824       0.152108      -0.736406       0.659219
      5   2   -1.0000      -4.071329       4.041918      -0.061006       0.416514       0.672683      -0.611566
ITEM: TIMESTEP
3300
ITEM: NUMBER OF ATOMS
5
ITEM: BOX BOUNDS ff ff ff
-5.00000000    5.00000000     
-5.00000000    5.00000000     
-5.00000000    5.00000000     
ITEM: ATOMS id type q x y z mux muy muz
      1   1    1.0000       2.310222       3.516494       4.692001      -0.294822      -0.938767      -0.178315
      2   2   -1.0000       2.994860       1.659375       3.099954       0.737596       0.423135      -0.526221
      3   1    1.0000       0.424329       3.300807       2.337375       0.122300       0.738542       0.663022
      4   2   -1.0000       3.796010       2.315836      -3.102831       0.220910      -0.829011       0.513751
      5   2   -1.0000      -4.053673       4.034920      -0.083111       0.356588       0.646291      -0.674650
ITEM: TIMESTEP
3400
ITEM: NUMBER OF ATOMS
5
ITEM: BOX BOUNDS ff ff ff
-5.00000000    5.00000000     
-5.00000000    5.00000000     
-5.00000000    5.00000000     
ITEM: ATOMS id type q x y z mux muy muz
      1   1    1.0000       2.315136       3.440744       4.630595      -0.338937      -0.932745      -0.122914
      2   2   -1.0000       2.966797       1.682046       3.126021       0.791085       0.304941      -0.530279
      3   1    1.0000       0.420997       3.271522       2.301412       0.047649       0.665554       0.744827
      4   2   -1.0000       3.805190       2.331344      -3.130835       0.282155      -0.894061       0.347914
      5   2   -1.0000      -4.036371       4.028222      -0.104284       0.293524       0.614133      -0.732588
ITEM: TIMESTEP
3500
ITEM: NUMBER OF ATOMS
5
ITEM: BOX BOUNDS ff ff ff
-5.00000000    5.00000000     
-5.00000000    5.00000000     
-5.00000000    5.00000000     
ITEM: ATOMS id type q x y z mux muy muz
      1   1    1.0000       2.321705       3.363907       4.570198      -0.363086      -0.929075      -0.070629
      2   2   -1.0000       2.938433       1.708034       3.153620       0.829200       0.159937      -0.535582
      3   1    1.0000       0.417074       3.243022       2.265270      -0.026456       0.586348       0.809627
      4   2   -1.0000       3.814063       2.346318      -3.157673       0.332758      -0.927717       0.169152
      5   2   -1.0000      -4.019527       4.021850      -0.124388       0.228561       0.576845      -0.784226
ITEM: TIMESTEP
3600
ITEM: NUMBER OF ATOMS
5
ITEM: BOX BOUNDS ff ff ff
-5.00000000    5.00000000     
-5.00000000    5.00000000     
-5.00000000    5.00000000     
ITEM: ATOMS id type q x y z mux muy muz
      1   1    1.0000       2.330113       3.286153       4.510483      -0.366423      -0.930079      -0.026205
      2   2   -1.0000       2.909564       1.737596       3.183214       0.843026      -0.007555      -0.537820
      3   1    1.0000       0.412776       3.215510       2.229339      -0.098177       0.503066       0.858654
      4   2   -1.0000       3.822564       2.360634      -3.183150       0.370558      -0.928698      -0.014385
      5   2   -1.0000      -4.003268       4.015833      -0.143264       0.162880       0.535253      -0.828839
ITEM: TIMESTEP
3700
ITEM: NUMBER OF ATOMS
5
ITEM: BOX BOUNDS ff ff ff
-5.00000000    5.00000000     
-5.00000000    5.00000000     
-5.00000000    5.00000000     
ITEM: ATOMS id type q x y z mux muy muz
      1   1    1.0000       2.340613       3.207737       4.450929      -0.347833      -0.937545       0.004677
      2   2   -1.0000       2.879926       1.770953       3.215451       0.824500      -0.189165      -0.533307
      3   1    1.0000       0.408349       3.189264       2.194127      -0.166077       0.417460       0.893390
      4   2   -1.0000       3.830614       2.374142      -3.207034       0.394439      -0.898004      -0.194954
      5   2   -1.0000      -3.987753       4.010211      -0.160733       0.097484       0.490240      -0.866119
ITEM: TIMESTEP
3800
ITEM: NUMBER OF ATOMS
5
ITEM: BOX BOUNDS ff ff ff
-5.00000000    5.00000000     
-5.00000000    5.00000000     
-5.00000000    5.00000000     
ITEM: ATOMS id type q x y z mux muy muz
      1   1    1.0000       2.353547       3.129018       4.390743      -0.305398      -0.952108       0.014940
      2   2   -1.0000       2.849213       1.808262       3.251251       0.768479      -0.372592      -0.520206
      3   1    1.0000       0.404050       3.164661       2.160279      -0.229115       0.331063       0.915371
      4   2   -1.0000       3.838113       2.386664      -3.229046       0.404203      -0.838298      -0.365890
      5   2   -1.0000      -3.973174       4.005029      -0.176589       0.033159       0.442667      -0.896073
ITEM: TIMESTEP
3900
ITEM: NUMBER OF ATOMS
5
ITEM: BOX BOUNDS ff ff ff
-5.00000000    5.00000000     
-5.00000000    5.00000000     
-5.00000000    5.00000000     
ITEM: ATOMS id type q x y z mux muy muz