ITEM: TIMESTEP
0
ITEM: NUMBER OF ATOMS
5
ITEM: BOX BOUNDS ff ff ff
-5.00000000    5.00000000     
-5.00000000    5.00000000     
-5.00000000    5.00000000     
ITEM: ATOMS id type q x y z mux muy muz
      1   1    1.0000       3.712394      -4.470304       2.821585       0.587612      -0.230659       0.775570
      2   2   -1.0000       1.158165      -1.847340       2.209494      -0.721727      -0.637406      -0.269858
      3   1    1.0000       2.823665       4.338447      -1.322478       0.552400      -0.740795       0.382201
      4   2   -1.0000       1.860316       1.026302       0.252241       0.049046      -0.645941      -0.761810
      5   2   -1.0000       3.904516      -4.968569      -2.178642       0.895942       0.415179       0.157842
ITEM: TIMESTEP
100
ITEM: NUMBER OF ATOMS
5
ITEM: BOX BOUNDS ff ff ff
-5.00000000    5.00000000     
-5.00000000    5.00000000     
-5.00000000    5.00000000     
ITEM: ATOMS id type q x y z mux muy muz
      1   1    1.0000       3.663895      -4.472237       2.784749       0.538636      -0.484066       0.689603
      2   2   -1.0000       1.155869      -1.781225       2.226651      -0.744181      -0.624924      -0.235932
      3   1    1.0000       2.824116       4.283669      -1.344599       0.540013      -0.765183       0.350544
      4   2   -1.0000       1.875501       1.041160       0.269815       0.046668      -0.651327      -0.757361
      5   2   -1.0000       3.939675      -4.992830      -2.154417       0.908357       0.356490       0.218636
ITEM: TIMESTEP
200
ITEM: NUMBER OF ATOMS
5
ITEM: BOX BOUNDS ff ff ff
-5.00000000    5.00000000     
-5.00000000    5.00000000     
-5.00000000    5.00000000     
ITEM: ATOMS id type q x y z mux muy muz
      1   1    1.0000       3.615172      -4.473759       2.747573       0.449132      -0.701515       0.553315
      2   2   -1.0000       1.153797      -1.716306       2.244410      -0.769517      -0.604799      -0.205089
      3   1    1.0000       2.824018       4.228045      -1.365861       0.518771      -0.793206       0.318906
      4   2   -1.0000       1.891209       1.057745       0.286312       0.038963      -0.671663      -0.739831
      5   2   -1.0000       3.974860      -4.982898      -2.130235       0.913620       0.296988       0.277664
ITEM: TIMESTEP
300
ITEM: NUMBER OF ATOMS
5
ITEM: BOX BOUNDS ff ff ff
-5.00000000    5.00000000     
-5.00000000    5.00000000     
-5.00000000    5.00000000     
ITEM: ATOMS id type q x y z mux muy muz
      1   1    1.0000       3.566298      -4.474884       2.710065       0.326540      -0.866447       0.377680
      2   2   -1.0000       1.151871      -1.652557       2.262725      -0.797306      -0.576866      -0.177563
      3   1    1.0000       2.823362       4.171551      -1.386203       0.487887      -0.824009       0.288054
      4   2   -1.0000       1.907449       1.076083       0.301672       0.025614      -0.706906      -0.706843
      5   2   -1.0000       4.010076      -4.958861      -2.106060       0.912174       0.238076       0.333553
ITEM: TIMESTEP
400
ITEM: NUMBER OF ATOMS
5
ITEM: BOX BOUNDS ff ff ff
-5.00000000    5.00000000     
-5.00000000    5.00000000     
-5.00000000    5.00000000     
ITEM: ATOMS id type q x y z mux muy muz
      1   1    1.0000       3.517347      -4.475606       2.672243       0.181214      -0.967363       0.177116
      2   2   -1.0000       1.150032      -1.589973       2.281531      -0.826909      -0.541007      -0.153405
      3   1    1.0000       2.822134       4.114165      -1.405545       0.446830      -0.856342       0.258884
      4   2   -1.0000       1.924230       1.096185       0.315833       0.006510      -0.755215      -0.655445
      5   2   -1.0000       4.045312      -4.935080      -2.081862       0.904933       0.181153       0.385070
ITEM: TIMESTEP
500
ITEM: NUMBER OF ATOMS
5
ITEM: BOX BOUNDS ff ff ff
-5.00000000    5.00000000     
-5.00000000    5.00000000     
-5.00000000    5.00000000     
ITEM: ATOMS id type q x y z mux muy muz
      1   1    1.0000       3.468392      -4.475903       2.634132       0.025195      -0.999163      -0.032220
      2   2   -1.0000       1.148236      -1.528564       2.300743      -0.857461      -0.497207      -0.132459
      3   1    1.0000       2.820316       4.055866      -1.423791       0.395462      -0.888597       0.232389
      4   2   -1.0000       1.941562       1.118051       0.328725      -0.018107      -0.812578      -0.582571
      5   2   -1.0000       4.080549      -4.911562      -2.057610       0.893190       0.127451       0.431240
ITEM: TIMESTEP
600
ITEM: NUMBER OF ATOMS
5
ITEM: BOX BOUNDS ff ff ff
-5.00000000    5.00000000     
-5.00000000    5.00000000     
-5.00000000    5.00000000     
ITEM: ATOMS id type q x y z mux muy muz
      1   1    1.0000       3.419496      -4.475732       2.595761      -0.129371      -0.963460      -0.234540
      2   2   -1.0000       1.146457      -1.468345       2.320266      -0.887898      -0.445594      -0.114381
      3   1    1.0000       2.817888       3.996625      -1.440827       0.334123      -0.918930       0.209593
      4   2   -1.0000       1.959456       1.141669       0.340277      -0.047489      -0.872773      -0.485810
      5   2   -1.0000       4.115759      -4.888315      -2.033277       0.878451       0.077889       0.471442
ITEM: TIMESTEP
700
ITEM: NUMBER OF ATOMS
5
ITEM: BOX BOUNDS ff ff ff
-5.00000000    5.00000000     
-5.00000000    5.00000000     
-5.00000000    5.00000000     
ITEM: ATOMS id type q x y z mux muy muz
      1   1    1.0000       3.370715      -4.475040       2.557160      -0.271750      -0.867646      -0.416345
      2   2   -1.0000       1.144682      -1.409334       2.339995      -0.917012      -0.386460      -0.098682
      3   1    1.0000       2.814826       3.936400      -1.456521       0.263638      -0.945429       0.191465
      4   2   -1.0000       1.977924       1.167026       0.350406      -0.080290      -0.927802      -0.364332
      5   2   -1.0000       4.150908      -4.865345      -2.008840       0.862229       0.033000       0.505443
ITEM: TIMESTEP
800
ITEM: NUMBER OF ATOMS
5
ITEM: BOX BOUNDS ff ff ff
-5.00000000    5.00000000     
-5.00000000    5.00000000     
-5.00000000    5.00000000     
ITEM: ATOMS id type q x y z mux muy muz
      1   1    1.0000       3.322103      -4.473759       2.518369      -0.393665      -0.723040      -0.567664
      2   2   -1.0000       1.142916      -1.351556       2.359821      -0.943530      -0.320250      -0.084796
      3   1    1.0000       2.811109       3.875141      -1.470725       0.185252      -0.966280       0.178843
      4   2   -1.0000       1.996976       1.194104       0.359018      -0.114569      -0.968818      -0.219693
      5   2   -1.0000       4.185952      -4.842662      -1.984283       0.845868      -0.007082       0.533345
ITEM: TIMESTEP
900
ITEM: NUMBER OF ATOMS
5
ITEM: BOX BOUNDS ff ff ff
-5.00000000    5.00000000     
-5.00000000    5.00000000     
-5.00000000    5.00000000     
ITEM: ATOMS id type q x y z mux muy muz
      1   1    1.0000       3.273710      -4.471819       2.479433      -0.489667      -0.542754      -0.682382
      2   2   -1.0000       1.141173      -1.295045       2.379640      -0.966190      -0.247528      -0.072157
      3   1    1.0000       2.806718       3.812789      -1.483276       0.100507      -0.979888       0.172389
      4   2   -1.0000       2.016614       1.222893       0.366003      -0.147941      -0.987397      -0.056228
      5   2   -1.0000       4.220841      -4.820280      -1.959600       0.830431      -0.042548       0.555494
ITEM: TIMESTEP
1000
ITEM: NUMBER OF ATOMS
5
ITEM: BOX BOUNDS ff ff ff
-5.00000000    5.00000000     
-5.00000000    5.00000000     
-5.00000000    5.00000000     
ITEM: ATOMS id type q x y z mux muy muz
      1   1    1.0000       3.225588      -4.469146       2.440405      -0.556923      -0.339904      -0.757827
      2   2   -1.0000       1.139480      -1.239846       2.399356      -0.983784      -0.168927      -0.060275
      3   1    1.0000       2.801640       3.749280      -1.493996       0.011129      -0.984935       0.172567
      4   2   -1.0000       2.036834       1.253389       0.371231      -0.177833      -0.976825       0.119118
      5   2   -1.0000       4.255513      -4.798216      -1.934797       0.816662      -0.073818       0.572375
ITEM: TIMESTEP
1100
ITEM: NUMBER OF ATOMS
5
ITEM: BOX BOUNDS ff ff ff
-5.00000000    5.00000000     
-5.00000000    5.00000000     
-5.00000000    5.00000000     
ITEM: ATOMS id type q x y z mux muy muz
      1   1    1.0000       3.177795      -4.465668       2.401353      -0.594670      -0.126469      -0.793960
      2   2   -1.0000       1.137871      -1.186023       2.418889      -0.995178      -0.085094      -0.048784
      3   1    1.0000       2.795876       3.684549      -1.502705      -0.081064      -0.980384       0.179655
      4   2   -1.0000       2.057613       1.285605       0.374555      -0.201798      -0.933148       0.297511
      5   2   -1.0000       4.289901      -4.776494      -1.909893       0.805015      -0.101443       0.584517
ITEM: TIMESTEP
1200
ITEM: NUMBER OF ATOMS
5
ITEM: BOX BOUNDS ff ff ff
-5.00000000    5.00000000     
-5.00000000    5.00000000     
-5.00000000    5.00000000     
ITEM: ATOMS id type q x y z mux muy muz
      1   1    1.0000       3.130393      -4.461321       2.362353      -0.603586       0.087194      -0.792515
      2   2   -1.0000       1.136385      -1.133662       2.438175      -0.999292       0.003344      -0.037477
      3   1    1.0000       2.789439       3.618535      -1.509220      -0.174197      -0.965459       0.193766
      4   2   -1.0000       2.078913       1.319570       0.375815      -0.217816      -0.855736       0.469332
      5   2   -1.0000       4.323925      -4.755144      -1.884922       0.795706      -0.126015       0.592429
ITEM: TIMESTEP
1300
ITEM: NUMBER OF ATOMS
5
ITEM: BOX BOUNDS ff ff ff
-5.00000000    5.00000000     
-5.00000000    5.00000000     
-5.00000000    5.00000000     
ITEM: ATOMS id type q x y z mux muy muz
      1   1    1.0000       3.083456      -4.456049       2.323494      -0.585267       0.292359      -0.756299
      2   2   -1.0000       1.135065      -1.082876       2.457170      -0.995052       0.095813      -0.026309
      3   1    1.0000       2.782361       3.551185      -1.513372      -0.266348      -0.939622       0.214871
      4   2   -1.0000       2.100674       1.355330       0.374842      -0.224519      -0.747307       0.625398
      5   2   -1.0000       4.357500      -4.734205      -1.859934       0.788781      -0.148120       0.596561
ITEM: TIMESTEP
1400
ITEM: NUMBER OF ATOMS
5
ITEM: BOX BOUNDS ff ff ff
-5.00000000    5.00000000     
-5.00000000    5.00000000     
-5.00000000    5.00000000     
ITEM: ATOMS id type q x y z mux muy muz
      1   1    1.0000       3.037063      -4.449808       2.284878      -0.541868       0.481683      -0.688739
      2   2   -1.0000       1.133956      -1.033800       2.475847      -0.981319       0.191772      -0.015399
      3   1    1.0000       2.774692       3.482464      -1.515004      -0.355528      -0.902572       0.242826
      4   2   -1.0000       2.122811       1.392949       0.371473      -0.221303      -0.613463       0.758082
      5   2   -1.0000       4.390534      -4.713716      -1.834994       0.784172      -0.168301       0.597285
ITEM: TIMESTEP
1500
ITEM: NUMBER OF ATOMS
5
ITEM: BOX BOUNDS ff ff ff
-5.00000000    5.00000000     
-5.00000000    5.00000000     
-5.00000000    5.00000000     
ITEM: ATOMS id type q x y z mux muy muz
      1   1    1.0000       2.991301      -4.442571       2.246617      -0.475920       0.648899      -0.593659
      2   2   -1.0000       1.133103      -0.986595       2.494191      -0.956812       0.290666      -0.005008
      3   1    1.0000       2.766500       3.412351      -1.513988      -0.439652      -0.854262       0.277386
      4   2   -1.0000       2.145221       1.432503       0.365558      -0.208322      -0.461882       0.862129
      5   2   -1.0000       4.422929      -4.693727      -1.810179       0.781743      -0.187046       0.594888
ITEM: TIMESTEP
1600
ITEM: NUMBER OF ATOMS
5
ITEM: BOX BOUNDS ff ff ff
-5.00000000    5.00000000     
-5.00000000    5.00000000     
-5.00000000    5.00000000     
ITEM: ATOMS id type q x y z mux muy muz
      1   1    1.0000       2.946267      -4.434329       2.208835      -0.390291       0.788556      -0.475239
      2   2   -1.0000       1.132551      -0.941436       2.512195      -0.920029       0.391825       0.004476
      3   1    1.0000       2.757869       3.340850      -1.510226      -0.516528      -0.794943       0.318221
      4   2   -1.0000       2.167781       1.474075       0.356977      -0.186375      -0.301363       0.935117
      5   2   -1.0000       4.454588      -4.674288      -1.785580       0.781323      -0.204788       0.589572
ITEM: TIMESTEP
1700
ITEM: NUMBER OF ATOMS
5
ITEM: BOX BOUNDS ff ff ff
-5.00000000    5.00000000     
-5.00000000    5.00000000     
-5.00000000    5.00000000     
ITEM: ATOMS id type q x y z mux muy muz
      1   1    1.0000       2.902059      -4.425095       2.171663      -0.288231       0.895892      -0.338084
      2   2   -1.0000       1.132340      -0.898505       2.529850      -0.869201       0.494300       0.012555
      3   1    1.0000       2.748893       3.267984      -1.503655      -0.583841      -0.725230       0.364927
      4   2   -1.0000       2.190354       1.517751       0.345642      -0.156733      -0.140892       0.977540
      5   2   -1.0000       4.485409      -4.655453      -1.761300       0.782729      -0.221900       0.581461
ITEM: TIMESTEP
1800
ITEM: NUMBER OF ATOMS
5
ITEM: BOX BOUNDS ff ff ff
-5.00000000    5.00000000     
-5.00000000    5.00000000     
-5.00000000    5.00000000     
ITEM: ATOMS id type q x y z mux muy muz
      1   1    1.0000       2.858785      -4.414907       2.135237      -0.173456       0.966862      -0.187326
      2   2   -1.0000       1.132507      -0.857977       2.547142      -0.802289       0.596645       0.018645
      3   1    1.0000       2.739672       3.193795      -1.494242      -0.639165      -0.646184       0.417031
      4   2   -1.0000       2.212797       1.563617       0.331509      -0.120923       0.011124       0.992600
      5   2   -1.0000       4.515294      -4.637280      -1.737446       0.785772      -0.238707       0.570597
ITEM: TIMESTEP
1900
ITEM: NUMBER OF ATOMS
5
ITEM: BOX BOUNDS ff ff ff
-5.00000000    5.00000000     
-5.00000000    5.00000000     
-5.00000000    5.00000000     
ITEM: ATOMS id type q x y z mux muy muz
      1   1    1.0000       2.816560      -4.403831       2.099701      -0.050227       0.998325      -0.028714
      2   2   -1.0000       1.133080      -0.820010       2.564047      -0.717085       0.696635       0.022096
      3   1    1.0000       2.730300       3.118338      -1.481986      -0.679979      -0.559415       0.474009
      4   2   -1.0000       2.234969       1.611752       0.314571      -0.080525       0.147342       0.985802
      5   2   -1.0000       4.544146      -4.619826      -1.714133       0.790274      -0.255478       0.556955
ITEM: TIMESTEP
2000
ITEM: NUMBER OF ATOMS
5
ITEM: BOX BOUNDS ff ff ff
-5.00000000    5.00000000     
-5.00000000    5.00000000     
-5.00000000    5.00000000     
ITEM: ATOMS id type q x y z mux muy muz
      1   1    1.0000       2.775508      -4.391966       2.065201       0.076619       0.988368       0.131367
      2   2   -1.0000       1.134078      -0.784735       2.580522      -0.611463       0.790960       0.022225
      3   1    1.0000       2.720856       3.041670      -1.466897      -0.703688      -0.467227       0.535277
      4   2   -1.0000       2.256743       1.662239       0.294854      -0.037011       0.261647       0.964454
      5   2   -1.0000       4.571870      -4.603154      -1.691481       0.796059      -0.272427       0.540438
ITEM: TIMESTEP
2100
ITEM: NUMBER OF ATOMS
5
ITEM: BOX BOUNDS ff ff ff
-5.00000000    5.00000000     
-5.00000000    5.00000000     
-5.00000000    5.00000000     
ITEM: ATOMS id type q x y z mux muy muz
      1   1    1.0000       2.735776      -4.379443       2.031892       0.201722       0.936759       0.285991
      2   2   -1.0000       1.135505      -0.752252       2.596510      -0.483865       0.874949       0.018379
      3   1    1.0000       2.711390       2.963843      -1.448976      -0.707671      -0.372817       0.600175
      4   2   -1.0000       2.278016       1.715162       0.272384       0.008318       0.348940       0.937108
      5   2   -1.0000       4.598368      -4.587331      -1.669611       0.802957      -0.289697       0.520899
ITEM: TIMESTEP
2200
ITEM: NUMBER OF ATOMS
5
ITEM: BOX BOUNDS ff ff ff
-5.00000000    5.00000000     
-5.00000000    5.00000000     
-5.00000000    5.00000000     
ITEM: ATOMS id type q x y z mux muy muz
      1   1    1.0000       2.697543      -4.366434       1.999942       0.319363       0.845510       0.427926
      2   2   -1.0000       1.137348      -0.722629       2.611930      -0.334115       0.942479       0.010036
      3   1    1.0000       2.701902       2.884892      -1.428167      -0.689372      -0.280568       0.667868
      4   2   -1.0000       2.298731       1.770627       0.247150       0.054239       0.404511       0.912923
      5   2   -1.0000       4.623531      -4.572433      -1.648654       0.810788      -0.307331       0.498166
ITEM: TIMESTEP
2300
ITEM: NUMBER OF ATOMS
5
ITEM: BOX BOUNDS ff ff ff
-5.00000000    5.00000000     
-5.00000000    5.00000000     
-5.00000000    5.00000000     
ITEM: ATOMS id type q x y z mux muy muz
      1   1    1.0000       2.661049      -4.353156       1.969550       0.423794       0.719576       0.550099
      2   2   -1.0000       1.139571      -0.695912       2.626673      -0.164617       0.986353      -0.003026
      3   1    1.0000       2.692311       2.804828      -1.404282      -0.646567      -0.196435       0.737132
      4   2   -1.0000       2.318899       1.828767       0.219014       0.099195       0.423056       0.900658
      5   2   -1.0000       4.647226      -4.558551      -1.628756       0.819343      -0.325231       0.472124
ITEM: TIMESTEP
2400
ITEM: NUMBER OF ATOMS
5
ITEM: BOX BOUNDS ff ff ff
-5.00000000    5.00000000     
-5.00000000    5.00000000     
-5.00000000    5.00000000     
ITEM: ATOMS id type q x y z mux muy muz
      1   1    1.0000       2.626629      -4.339879       1.940976       0.509869       0.567598       0.646426
      2   2   -1.0000       1.142109      -0.672150       2.640596       0.018224       0.999624      -0.020488
      3   1    1.0000       2.682400       2.723661      -1.376849      -0.577997      -0.128263       0.805896
      4   2   -1.0000       2.338645       1.889746       0.187569       0.140395       0.397665       0.906726
      5   2   -1.0000       4.669273      -4.545802      -1.610093       0.828352      -0.343091       0.442856
ITEM: TIMESTEP
2500
ITEM: NUMBER OF ATOMS
5
ITEM: BOX BOUNDS ff ff ff
-5.00000000    5.00000000     
-5.00000000    5.00000000     
-5.00000000    5.00000000     
ITEM: ATOMS id type q x y z mux muy muz
      1   1    1.0000       2.594756      -4.326944       1.914571       0.574104       0.402213       0.713182
      2   2   -1.0000       1.144866      -0.651421       2.653505       0.203198       0.978268      -0.041255
      3   1    1.0000       2.671723       2.641491      -1.344838      -0.484685      -0.085429       0.870507
      4   2   -1.0000       2.358292       1.953681       0.151853       0.172327       0.320099       0.931579
      5   2   -1.0000       4.689419      -4.534340      -1.592891       0.837463      -0.360351       0.410856
ITEM: TIMESTEP
2600
ITEM: NUMBER OF ATOMS
5
ITEM: BOX BOUNDS ff ff ff
-5.00000000    5.00000000     
-5.00000000    5.00000000     
-5.00000000    5.00000000     
ITEM: ATOMS id type q x y z mux muy muz
      1   1    1.0000       2.566080      -4.314773       1.890819       0.616062       0.238674       0.750668
      2   2   -1.0000       1.147713      -0.633859       2.665139       0.375864       0.924500      -0.063452
      3   1    1.0000       2.659456       2.558803      -1.306188      -0.371888      -0.076551       0.925116
      4   2   -1.0000       2.378495       2.020370       0.109885       0.185470       0.184950       0.965088
      5   2   -1.0000       4.707311      -4.524360      -1.577455       0.846270      -0.376257       0.377170
ITEM: TIMESTEP
2700
ITEM: NUMBER OF ATOMS
5
ITEM: BOX BOUNDS ff ff ff
-5.00000000    5.00000000     
-5.00000000    5.00000000     
-5.00000000    5.00000000     
ITEM: ATOMS id type q x y z mux muy muz
      1   1    1.0000       2.541417      -4.303864       1.870337       0.639052       0.090490       0.763822
      2   2   -1.0000       1.150490      -0.619647       2.675168       0.523824       0.847578      -0.084969
      3   1    1.0000       2.644246       2.477189      -1.257130      -0.250393      -0.104343       0.962505
      4   2   -1.0000       2.400397       2.088564       0.057986       0.167376      -0.001057       0.985893
      5   2   -1.0000       4.722505      -4.516086      -1.564162       0.854440      -0.390125       0.343124
ITEM: TIMESTEP
2800
ITEM: NUMBER OF ATOMS
5
ITEM: BOX BOUNDS ff ff ff
-5.00000000    5.00000000     
-5.00000000    5.00000000     
-5.00000000    5.00000000     
ITEM: ATOMS id type q x y z mux muy muz
      1   1    1.0000       2.521623      -4.294743       1.853790       0.648797      -0.036226       0.760099
      2   2   -1.0000       1.153017      -0.608953       2.683240       0.642819       0.758870      -0.104407
      3   1    1.0000       2.624250       2.400747      -1.191497      -0.135056      -0.159615       0.977897
      4   2   -1.0000       2.425627       2.154499      -0.009919       0.107169      -0.210841       0.971628
      5   2   -1.0000       4.734538      -4.509724      -1.553415       0.861895      -0.401736       0.309426
ITEM: TIMESTEP
2900
ITEM: NUMBER OF ATOMS
5
ITEM: BOX BOUNDS ff ff ff
-5.00000000    5.00000000     
-5.00000000    5.00000000     
-5.00000000    5.00000000     
ITEM: ATOMS id type q x y z mux muy muz
      1   1    1.0000       2.507368      -4.287869       1.841716       0.650563      -0.145413       0.745402
      2   2   -1.0000       1.155110      -0.601798       2.689069       0.738138       0.663579      -0.121715
      3   1    1.0000       2.598136       2.338603      -1.102699      -0.040657      -0.217496       0.975214
      4   2   -1.0000       2.455369       2.209268      -0.100345      -0.001327      -0.398474       0.917178
      5   2   -1.0000       4.743073      -4.505386      -1.545541       0.868919      -0.411544       0.274974
ITEM: TIMESTEP
3000
ITEM: NUMBER OF ATOMS
5
ITEM: BOX BOUNDS ff ff ff
-5.00000000    5.00000000     
-5.00000000    5.00000000     
-5.00000000    5.00000000     
ITEM: ATOMS id type q x y z mux muy muz
      1   1    1.0000       2.497352      -4.282766       1.833028       0.646724      -0.250791       0.720314
      2   2   -1.0000       1.156842      -0.597202       2.693169       0.821424       0.553302      -0.138273
      3   1    1.0000       2.583532       2.315204      -1.115800       0.024445      -0.233042       0.972159
      4   2   -1.0000       2.472375       2.227618      -0.088374      -0.161644      -0.504079       0.848396
      5   2   -1.0000       4.748955      -4.502556      -1.539823       0.876201      -0.420624       0.235261
ITEM: TIMESTEP
3100
ITEM: NUMBER OF ATOMS
5
ITEM: BOX BOUNDS ff ff ff
-5.00000000    5.00000000     
-5.00000000    5.00000000     
-5.00000000    5.00000000     
ITEM: ATOMS id type q x y z mux muy muz
      1   1    1.0000       2.487206      -4.277288       1.823924       0.636026      -0.364330       0.680246
      2   2   -1.0000       1.158875      -0.592953       2.697322       0.897611       0.412664      -0.154932
      3   1    1.0000       2.574250       2.316211      -1.182934       0.072128      -0.174981       0.981926
      4   2   -1.0000       2.483925       2.221602      -0.022354      -0.351626      -0.493498       0.795499
      5   2   -1.0000       4.754798      -4.499933      -1.533759       0.883986      -0.429526       0.184597
ITEM: TIMESTEP
3200
ITEM: NUMBER OF ATOMS
5
ITEM: BOX BOUNDS ff ff ff
-5.00000000    5.00000000     
-5.00000000    5.00000000     
-5.00000000    5.00000000     
ITEM: ATOMS id type q x y z mux muy muz
      1   1    1.0000       2.466025      -4.265371       1.804349       0.618909      -0.471346       0.628319
      2   2   -1.0000       1.163487      -0.584579       2.705991       0.951483       0.257377      -0.168631
      3   1    1.0000       2.552527       2.329230      -1.234553       0.113345      -0.066747       0.991311
      4   2   -1.0000       2.510172       2.198231       0.027013      -0.504137      -0.391437       0.769821
      5   2   -1.0000       4.766845      -4.494830      -1.520600       0.890538      -0.436438       0.128309
ITEM: TIMESTEP
3300
ITEM: NUMBER OF ATOMS
5
ITEM: BOX BOUNDS ff ff ff
-5.00000000    5.00000000     
-5.00000000    5.00000000     
-5.00000000    5.00000000     
ITEM: ATOMS id type q x y z mux muy muz
      1   1    1.0000       2.428158      -4.243587       1.768692       0.596932      -0.567699       0.566913
      2   2   -1.0000       1.172001      -0.569934       2.721500       0.979209       0.096224      -0.178578
      3   1    1.0000       2.518998       2.352647      -1.263557       0.156714       0.058294       0.985922
      4   2   -1.0000       2.551637       2.156338       0.052080      -0.588031      -0.242948       0.771489
      5   2   -1.0000       4.788261      -4.486064      -1.496514       0.895143      -0.440514       0.068308
ITEM: TIMESTEP
3400
ITEM: NUMBER OF ATOMS
5
ITEM: BOX BOUNDS ff ff ff
-5.00000000    5.00000000     
-5.00000000    5.00000000     
-5.00000000    5.00000000     
ITEM: ATOMS id type q x y z mux muy muz
      1   1    1.0000       2.380267      -4.215589       1.722916       0.570552      -0.655273       0.495064
      2   2   -1.0000       1.182937      -0.551578       2.741145       0.980223      -0.070552      -0.184892
      3   1    1.0000       2.484859       2.375348      -1.259365       0.210199       0.172137       0.962385
      4   2   -1.0000       2.595735       2.110238       0.042986      -0.593827      -0.085830       0.800002
      5   2   -1.0000       4.815258      -4.475296      -1.465482       0.897404      -0.441197       0.003240
ITEM: TIMESTEP
3500
ITEM: NUMBER OF ATOMS
5
ITEM: BOX BOUNDS ff ff ff
-5.00000000    5.00000000     
-5.00000000    5.00000000     
-5.00000000    5.00000000     
ITEM: ATOMS id type q x y z mux muy muz
      1   1    1.0000       2.329598      -4.185496       1.673722       0.539722      -0.734515       0.411324
      2   2   -1.0000       1.194628      -0.532218       2.761991       0.952109      -0.241617      -0.187374
      3   1    1.0000       2.458582       2.387187      -1.222424       0.280834       0.247168       0.927384
      4   2   -1.0000       2.632514       2.073556       0.000924      -0.516512       0.045715       0.855059
      5   2   -1.0000       4.843734      -4.464215      -1.432012       0.896570      -0.437656      -0.067967
ITEM: TIMESTEP
3600
ITEM: NUMBER OF ATOMS
5
ITEM: BOX BOUNDS ff ff ff
-5.00000000    5.00000000     
-5.00000000    5.00000000     
-5.00000000    5.00000000     
ITEM: ATOMS id type q x y z mux muy muz
      1   1    1.0000       2.282464      -4.156995       1.627098       0.505818      -0.801772       0.318293
      2   2   -1.0000       1.205604      -0.514184       2.781483       0.894478      -0.406705      -0.185743
      3   1    1.0000       2.445403       2.379829      -1.156950       0.370754       0.248611       0.894838
      4   2   -1.0000       2.655451       2.057662      -0.069274      -0.355141       0.111572       0.928131
      5   2   -1.0000       4.870133      -4.454212      -1.400157       0.891839      -0.429222      -0.142801
ITEM: TIMESTEP
3700
ITEM: NUMBER OF ATOMS
5
ITEM: BOX BOUNDS ff ff ff
-5.00000000    5.00000000     
-5.00000000    5.00000000     
-5.00000000    5.00000000     
ITEM: ATOMS id type q x y z mux muy muz
      1   1    1.0000       2.244967      -4.133790       1.589073       0.473807      -0.850822       0.227174
      2   2   -1.0000       1.214451      -0.499747       2.797125       0.818714      -0.544945      -0.180946
      3   1    1.0000       2.445500       2.349536      -1.079354       0.462241       0.136996       0.876108
      4   2   -1.0000       2.663106       2.069266      -0.150619      -0.129392       0.068764       0.989206
      5   2   -1.0000       4.891032      -4.446535      -1.374026       0.883769      -0.416781      -0.212711
ITEM: TIMESTEP
3800
ITEM: NUMBER OF ATOMS
5
ITEM: BOX BOUNDS ff ff ff
-5.00000000    5.00000000     
-5.00000000    5.00000000     
-5.00000000    5.00000000     
ITEM: ATOMS id type q x y z mux muy muz
      1   1    1.0000       2.205279      -4.108568       1.547629       0.450669      -0.879321       0.153921
      2   2   -1.0000       1.223995      -0.484313       2.813866       0.749008      -0.638835      -0.175718
      3   1    1.0000       2.419482       2.326701      -1.118266       0.502780      -0.076462       0.861026
      4   2   -1.0000       2.697293       2.072050      -0.115682       0.096791      -0.075630       0.992427
      5   2   -1.0000       4.913007      -4.438709      -1.345347       0.875192      -0.403510      -0.266868
ITEM: TIMESTEP
3900
ITEM: NUMBER OF ATOMS
5
ITEM: BOX BOUNDS ff ff ff
-5.00000000    5.00000000     
-5.00000000    5.00000000     
-5.00000000    5.00000000     
ITEM: ATOMS id type q x y z mux muy muz