ITEM: TIMESTEP
0
ITEM: NUMBER OF ATOMS
5
ITEM: BOX BOUNDS ff ff ff
-5.00000000    5.00000000     
-5.00000000    5.00000000     
-5.00000000    5.00000000     
ITEM: ATOMS id type q x y z mux muy muz
      1   1    1.0000      -2.235295      -4.499115      -0.249033      -0.236769      -0.880354      -0.410996
      2   2   -1.0000      -4.426523       2.185631      -1.280740       0.352666      -0.862951       0.361860
      3   1    1.0000      -3.006437       0.448134       4.737274      -0.934581      -0.154969       0.320222
      4   2   -1.0000       1.951346      -0.082936       2.769389      -0.449951       0.444331       0.774670
      5   2   -1.0000       2.374778       3.917440      -2.953060      -0.126657       0.956905      -0.261327
ITEM: TIMESTEP
100
ITEM: NUMBER OF ATOMS
5
ITEM: BOX BOUNDS ff ff ff
-5.00000000    5.00000000     
-5.00000000    5.00000000     
-5.00000000    5.00000000     
ITEM: ATOMS id type q x y z mux muy muz
      1   1    1.0000      -2.255078      -4.515916      -0.263374      -0.241938      -0.878874      -0.411153
      2   2   -1.0000      -4.403248       2.274462      -1.284093       0.347189      -0.863899       0.364881
      3   1    1.0000      -3.014730       0.408108       4.705274      -0.931773      -0.163875       0.323951
      4   2   -1.0000       1.954781      -0.123549       2.794124      -0.423417       0.642274       0.638907
      5   2   -1.0000       2.376144       3.926050      -2.928101      -0.108063       0.960086      -0.257987
ITEM: TIMESTEP
200
ITEM: NUMBER OF ATOMS
5
ITEM: BOX BOUNDS ff ff ff
-5.00000000    5.00000000     
-5.00000000    5.00000000     
-5.00000000    5.00000000     
ITEM: ATOMS id type q x y z mux muy muz
      1   1    1.0000      -2.274720      -4.532513      -0.277786      -0.245870      -0.876718      -0.413416
      2   2   -1.0000      -4.380199       2.363217      -1.287289       0.344372      -0.864263       0.366683
      3   1    1.0000      -3.022847       0.368241       4.673040      -0.929315      -0.172770       0.326381
      4   2   -1.0000       1.958028      -0.164508       2.819142      -0.370813       0.803625       0.465494
      5   2   -1.0000       2.377607       3.934718      -2.903278      -0.088121       0.963425      -0.253076
ITEM: TIMESTEP
300
ITEM: NUMBER OF ATOMS
5
ITEM: BOX BOUNDS ff ff ff
-5.00000000    5.00000000     
-5.00000000    5.00000000     
-5.00000000    5.00000000     
ITEM: ATOMS id type q x y z mux muy muz
      1   1    1.0000      -2.294219      -4.548910      -0.292264      -0.248356      -0.873870      -0.417936
      2   2   -1.0000      -4.357373       2.451902      -1.290332       0.344626      -0.863986       0.367099
      3   1    1.0000      -3.030777       0.328531       4.640579      -0.927211      -0.181736       0.327494
      4   2   -1.0000       1.961070      -0.205799       2.844417      -0.294990       0.918171       0.264469
      5   2   -1.0000       2.379168       3.943431      -2.878571      -0.066789       0.966834      -0.246517
ITEM: TIMESTEP
400
ITEM: NUMBER OF ATOMS
5
ITEM: BOX BOUNDS ff ff ff
-5.00000000    5.00000000     
-5.00000000    5.00000000     
-5.00000000    5.00000000     
ITEM: ATOMS id type q x y z mux muy muz
      1   1    1.0000      -2.313575      -4.565113      -0.306804      -0.249197      -0.870289      -0.424851
      2   2   -1.0000      -4.334769       2.540522      -1.293225       0.348404      -0.862962       0.365938
      3   1    1.0000      -3.038508       0.288978       4.607896      -0.925446      -0.190860       0.327296
      4   2   -1.0000       1.963890      -0.247408       2.869925      -0.200374       0.978549       0.047884
      5   2   -1.0000       2.380831       3.952176      -2.853962      -0.044036       0.970212      -0.238221
ITEM: TIMESTEP
500
ITEM: NUMBER OF ATOMS
5
ITEM: BOX BOUNDS ff ff ff
-5.00000000    5.00000000     
-5.00000000    5.00000000     
-5.00000000    5.00000000     
ITEM: ATOMS id type q x y z mux muy muz
      1   1    1.0000      -2.332789      -4.581129      -0.321402      -0.248207      -0.865904      -0.434284
      2   2   -1.0000      -4.312384       2.629083      -1.295973       0.356208      -0.861024       0.362978
      3   1    1.0000      -3.046026       0.249582       4.574996      -0.923989      -0.200219       0.325817
      4   2   -1.0000       1.966470      -0.289322       2.895644      -0.092710       0.980904      -0.170975
      5   2   -1.0000       2.382597       3.960940      -2.829435      -0.019848       0.973439      -0.228084
ITEM: TIMESTEP
600
ITEM: NUMBER OF ATOMS
5
ITEM: BOX BOUNDS ff ff ff
-5.00000000    5.00000000     
-5.00000000    5.00000000     
-5.00000000    5.00000000     
ITEM: ATOMS id type q x y z mux muy muz
      1   1    1.0000      -2.351866      -4.596963      -0.336056      -0.245213      -0.860608      -0.446345
      2   2   -1.0000      -4.290216       2.717591      -1.298582       0.368600      -0.857908       0.357948
      3   1    1.0000      -3.053315       0.210345       4.541884      -0.922797      -0.209876       0.323107
      4   2   -1.0000       1.968795      -0.331526       2.921560       0.021343       0.925317      -0.378593
      5   2   -1.0000       2.384472       3.969708      -2.804977       0.005768       0.976379      -0.215987
ITEM: TIMESTEP
700
ITEM: NUMBER OF ATOMS
5
ITEM: BOX BOUNDS ff ff ff
-5.00000000    5.00000000     
-5.00000000    5.00000000     
-5.00000000    5.00000000     
ITEM: ATOMS id type q x y z mux muy muz
      1   1    1.0000      -2.370811      -4.612622      -0.350763      -0.240051      -0.854246      -0.461128
      2   2   -1.0000      -4.268264       2.806052      -1.301056       0.386207      -0.853224       0.350505
      3   1    1.0000      -3.060363       0.171271       4.508565      -0.921819      -0.219871       0.319227
      4   2   -1.0000       1.970850      -0.374010       2.947662       0.134740       0.815875      -0.562310
      5   2   -1.0000       2.386457       3.978464      -2.780579       0.032789       0.978880      -0.201789
ITEM: TIMESTEP
800
ITEM: NUMBER OF ATOMS
5
ITEM: BOX BOUNDS ff ff ff
-5.00000000    5.00000000     
-5.00000000    5.00000000     
-5.00000000    5.00000000     
ITEM: ATOMS id type q x y z mux muy muz
      1   1    1.0000      -2.389628      -4.628112      -0.365524      -0.232564      -0.846615      -0.478704
      2   2   -1.0000      -4.246528       2.894471      -1.303401       0.409710      -0.846401       0.340212
      3   1    1.0000      -3.067154       0.132366       4.475045      -0.921006      -0.230217       0.314244
      4   2   -1.0000       1.972622      -0.416766       2.973945       0.240629       0.660338      -0.711373
      5   2   -1.0000       2.388557       3.987195      -2.756236       0.061166       0.980770      -0.185335
ITEM: TIMESTEP
900
ITEM: NUMBER OF ATOMS
5
ITEM: BOX BOUNDS ff ff ff
-5.00000000    5.00000000     
-5.00000000    5.00000000     
-5.00000000    5.00000000     
ITEM: ATOMS id type q x y z mux muy muz
      1   1    1.0000      -2.408325      -4.643437      -0.380337      -0.222601      -0.837457      -0.499113
      2   2   -1.0000      -4.225006       2.982851      -1.305623       0.439824      -0.836629       0.326508
      3   1    1.0000      -3.073678       0.093638       4.441329      -0.920310      -0.240890       0.308222
      4   2   -1.0000       1.974102      -0.459787       3.000409       0.332924       0.469437      -0.817796
      5   2   -1.0000       2.390776       3.995890      -2.731948       0.090820       0.981857      -0.166460
ITEM: TIMESTEP
1000
ITEM: NUMBER OF ATOMS
5
ITEM: BOX BOUNDS ff ff ff
-5.00000000    5.00000000     
-5.00000000    5.00000000     
-5.00000000    5.00000000     
ITEM: ATOMS id type q x y z mux muy muz
      1   1    1.0000      -2.426907      -4.658601      -0.395204      -0.210022      -0.826465      -0.522346
      2   2   -1.0000      -4.203699       3.071195      -1.307727       0.477243      -0.822774       0.308677
      3   1    1.0000      -3.079925       0.055097       4.407423      -0.919698      -0.251834       0.301223
      4   2   -1.0000       1.975286      -0.503073       3.027057       0.406796       0.255874      -0.876952
      5   2   -1.0000       2.393113       4.004538      -2.707718       0.121637       0.981926      -0.145002
ITEM: TIMESTEP
1100
ITEM: NUMBER OF ATOMS
5
ITEM: BOX BOUNDS ff ff ff
-5.00000000    5.00000000     
-5.00000000    5.00000000     
-5.00000000    5.00000000     
ITEM: ATOMS id type q x y z mux muy muz
      1   1    1.0000      -2.445380      -4.673609      -0.410127      -0.194705      -0.813287      -0.548319
      2   2   -1.0000      -4.182607       3.159503      -1.309718       0.522530      -0.803284       0.285827
      3   1    1.0000      -3.085887       0.016753       4.373331      -0.919148      -0.262951       0.293297
      4   2   -1.0000       1.976170      -0.546624       3.053896       0.459026       0.033156      -0.887804
      5   2   -1.0000       2.395572       4.013132      -2.683552       0.153451       0.980742      -0.120825
ITEM: TIMESTEP
1200
ITEM: NUMBER OF ATOMS
5
ITEM: BOX BOUNDS ff ff ff
-5.00000000    5.00000000     
-5.00000000    5.00000000     
-5.00000000    5.00000000     
ITEM: ATOMS id type q x y z mux muy muz
      1   1    1.0000      -2.463748      -4.688463      -0.425107      -0.176557      -0.797541      -0.576850
      2   2   -1.0000      -4.161729       3.247776      -1.311597       0.575943      -0.776083       0.256874
      3   1    1.0000      -3.091560      -0.021381       4.339059      -0.918658      -0.274105       0.284488
      4   2   -1.0000       1.976757      -0.590446       3.080935       0.488186      -0.185613      -0.852774
      5   2   -1.0000       2.398150       4.021668      -2.659460       0.186039       0.978051      -0.093839
ITEM: TIMESTEP
1300
ITEM: NUMBER OF ATOMS
5
ITEM: BOX BOUNDS ff ff ff
-5.00000000    5.00000000     
-5.00000000    5.00000000     
-5.00000000    5.00000000     
ITEM: ATOMS id type q x y z mux muy muz
      1   1    1.0000      -2.482016      -4.703162      -0.440146      -0.155536      -0.778845      -0.607626
      2   2   -1.0000      -4.141065       3.336011      -1.313369       0.637158      -0.738495       0.220578
      3   1    1.0000      -3.096944      -0.059292       4.304611      -0.918243      -0.285127       0.274831
      4   2   -1.0000       1.977048      -0.634545       3.108185       0.494628      -0.388831      -0.777273
      5   2   -1.0000       2.400846       4.030143      -2.635451       0.219110       0.973596      -0.064037
ITEM: TIMESTEP
1400
ITEM: NUMBER OF ATOMS
5
ITEM: BOX BOUNDS ff ff ff
-5.00000000    5.00000000     
-5.00000000    5.00000000     
-5.00000000    5.00000000     
ITEM: ATOMS id type q x y z mux muy muz
      1   1    1.0000      -2.500186      -4.717708      -0.455248      -0.131676      -0.756847      -0.640190
      2   2   -1.0000      -4.120613       3.424202      -1.315034       0.704893      -0.687227       0.175629
      3   1    1.0000      -3.102039      -0.096968       4.269992      -0.917937      -0.295814       0.264359
      4   2   -1.0000       1.977052      -0.678929       3.135654       0.480300      -0.567275      -0.668963
      5   2   -1.0000       2.403655       4.038558      -2.611535       0.252299       0.967136      -0.031513
ITEM: TIMESTEP
1500
ITEM: NUMBER OF ATOMS
5
ITEM: BOX BOUNDS ff ff ff
-5.00000000    5.00000000     
-5.00000000    5.00000000     
-5.00000000    5.00000000     
ITEM: ATOMS id type q x y z mux muy muz
      1   1    1.0000      -2.518259      -4.732098      -0.470412      -0.105107      -0.731277      -0.673934
      2   2   -1.0000      -4.100371       3.512346      -1.316591       0.776432      -0.618507       0.120837
      3   1    1.0000      -3.106848      -0.134398       4.235205      -0.917787      -0.305946       0.253109
      4   2   -1.0000       1.976775      -0.723610       3.163351       0.448405      -0.714660      -0.536837
      5   2   -1.0000       2.406572       4.046914      -2.587724       0.285174       0.958469       0.003503
ITEM: TIMESTEP
1600
ITEM: NUMBER OF ATOMS
5
ITEM: BOX BOUNDS ff ff ff
-5.00000000    5.00000000     
-5.00000000    5.00000000     
-5.00000000    5.00000000     
ITEM: ATOMS id type q x y z mux muy muz
      1   1    1.0000      -2.536235      -4.746330      -0.485641      -0.076076      -0.701990      -0.708112
      2   2   -1.0000      -4.080334       3.600434      -1.318039       0.847139      -0.528469       0.055461
      3   1    1.0000      -3.111378      -0.171570       4.200252      -0.917852      -0.315290       0.241120
      4   2   -1.0000       1.976227      -0.768596       3.191284       0.402964      -0.827844      -0.390249
      5   2   -1.0000       2.409589       4.055217      -2.564026       0.317257       0.947468       0.040644
ITEM: TIMESTEP
1700
ITEM: NUMBER OF ATOMS
5
ITEM: BOX BOUNDS ff ff ff
-5.00000000    5.00000000     
-5.00000000    5.00000000     
-5.00000000    5.00000000     
ITEM: ATOMS id type q x y z mux muy muz
      1   1    1.0000      -2.554114      -4.760400      -0.500936      -0.044947      -0.669008      -0.741895
      2   2   -1.0000      -4.060499       3.688457      -1.319375       0.910117      -0.413852      -0.020349
      3   1    1.0000      -3.115634      -0.208475       4.165133      -0.918195      -0.323622       0.228443
      4   2   -1.0000       1.975417      -0.813897       3.219457       0.348326      -0.906657      -0.237997
      5   2   -1.0000       2.412700       4.063471      -2.540450       0.348050       0.934106       0.079414
ITEM: TIMESTEP
1800
ITEM: NUMBER OF ATOMS
5
ITEM: BOX BOUNDS ff ff ff
-5.00000000    5.00000000     
-5.00000000    5.00000000     
-5.00000000    5.00000000     
ITEM: ATOMS id type q x y z mux muy muz
      1   1    1.0000      -2.571894      -4.774306      -0.516297      -0.012186      -0.632538      -0.774434
      2   2   -1.0000      -4.040864       3.776407      -1.320593       0.956251      -0.273041      -0.105032
      3   1    1.0000      -3.119624      -0.245106       4.129847      -0.918874      -0.330741       0.215132
      4   2   -1.0000       1.974354      -0.859525       3.247873       0.288707      -0.953402      -0.087589
      5   2   -1.0000       2.415896       4.071684      -2.517000       0.377082       0.918474       0.119224
ITEM: TIMESTEP
1900
ITEM: NUMBER OF ATOMS
5
ITEM: BOX BOUNDS ff ff ff
-5.00000000    5.00000000     
-5.00000000    5.00000000     
-5.00000000    5.00000000     
ITEM: ATOMS id type q x y z mux muy muz
      1   1    1.0000      -2.589571      -4.788041      -0.531725       0.021681      -0.592959      -0.804940
      2   2   -1.0000      -4.021426       3.864272      -1.321689       0.974885      -0.107258      -0.195177
      3   1    1.0000      -3.123353      -0.281454       4.094391      -0.919936      -0.336480       0.201244
      4   2   -1.0000       1.973047      -0.905487       3.276535       0.227803      -0.972139       0.055239
      5   2   -1.0000       2.419172       4.079865      -2.493683       0.403946       0.900779       0.159452
ITEM: TIMESTEP
2000
ITEM: NUMBER OF ATOMS
5
ITEM: BOX BOUNDS ff ff ff
-5.00000000    5.00000000     
-5.00000000    5.00000000     
-5.00000000    5.00000000     
ITEM: ATOMS id type q x y z mux muy muz
      1   1    1.0000      -2.607144      -4.801602      -0.547219       0.056117      -0.550777      -0.832764
      2   2   -1.0000      -4.002188       3.952044      -1.322653       0.955206       0.078411      -0.285367
      3   1    1.0000      -3.126827      -0.317515       4.058760      -0.921414      -0.340721       0.186832
      4   2   -1.0000       1.971505      -0.951794       3.305443       0.168544      -0.967854       0.186683
      5   2   -1.0000       2.422524       4.088022      -2.470501       0.428337       0.881319       0.199508
ITEM: TIMESTEP
2100
ITEM: NUMBER OF ATOMS
5
ITEM: BOX BOUNDS ff ff ff
-5.00000000    5.00000000     
-5.00000000    5.00000000     
-5.00000000    5.00000000     
ITEM: ATOMS id type q x y z mux muy muz
      1   1    1.0000      -2.624608      -4.814982      -0.562781       0.090631      -0.506556      -0.857430
      2   2   -1.0000      -3.983158       4.039712      -1.323480       0.888179       0.274565      -0.368445
      3   1    1.0000      -3.130051      -0.353284       4.022951      -0.923320      -0.343393       0.171935
      4   2   -1.0000       1.969734      -0.998455       3.334596       0.113006      -0.945706       0.304745
      5   2   -1.0000       2.425953       4.096163      -2.447457       0.450062       0.860449       0.238898
ITEM: TIMESTEP
2200
ITEM: NUMBER OF ATOMS
5
ITEM: BOX BOUNDS ff ff ff
-5.00000000    5.00000000     
-5.00000000    5.00000000     
-5.00000000    5.00000000     
ITEM: ATOMS id type q x y z mux muy muz
      1   1    1.0000      -2.641958      -4.828177      -0.578408       0.124816      -0.460857      -0.878653
      2   2   -1.0000      -3.964347       4.127270      -1.324160       0.768596       0.467902      -0.436266
      3   1    1.0000      -3.133027      -0.388758       3.986959      -0.925648      -0.344470       0.156579
      4   2   -1.0000       1.967740      -1.045478       3.363993       0.062462      -0.910446       0.408884
      5   2   -1.0000       2.429462       4.104298      -2.424554       0.469028       0.838534       0.277260
ITEM: TIMESTEP
2300
ITEM: NUMBER OF ATOMS
5
ITEM: BOX BOUNDS ff ff ff
-5.00000000    5.00000000     
-5.00000000    5.00000000     
-5.00000000    5.00000000     
ITEM: ATOMS id type q x y z mux muy muz
      1   1    1.0000      -2.659190      -4.841182      -0.594103       0.158369      -0.414189      -0.896307
      2   2   -1.0000      -3.945776       4.214711      -1.324687       0.596689       0.642510      -0.480774
      3   1    1.0000      -3.135754      -0.423936       3.950780      -0.928370      -0.343962       0.140778
      4   2   -1.0000       1.965528      -1.092871       3.393633       0.017534      -0.866087       0.499586
      5   2   -1.0000       2.433062       4.112433      -2.401794       0.485219       0.815926       0.314367
ITEM: TIMESTEP
2400
ITEM: NUMBER OF ATOMS
5
ITEM: BOX BOUNDS ff ff ff
-5.00000000    5.00000000     
-5.00000000    5.00000000     
-5.00000000    5.00000000     
ITEM: ATOMS id type q x y z mux muy muz
      1   1    1.0000      -2.676296      -4.853993      -0.609865       0.191078      -0.366991      -0.910388
      2   2   -1.0000      -3.927470       4.302035      -1.325052       0.378938       0.781786      -0.495194
      3   1    1.0000      -3.138231      -0.458815       3.914415      -0.931445      -0.341905       0.124541
      4   2   -1.0000       1.963099      -1.140643       3.423512      -0.021624      -0.815793       0.577940
      5   2   -1.0000       2.436768       4.120571      -2.379180       0.498662       0.792941       0.350116
ITEM: TIMESTEP
2500
ITEM: NUMBER OF ATOMS
5
ITEM: BOX BOUNDS ff ff ff
-5.00000000    5.00000000     
-5.00000000    5.00000000     
-5.00000000    5.00000000     
ITEM: ATOMS id type q x y z mux muy muz
      1   1    1.0000      -2.693270      -4.866606      -0.625694       0.222810      -0.319636      -0.920971
      2   2   -1.0000      -3.909459       4.389244      -1.325253       0.127911       0.870591      -0.475090
      3   1    1.0000      -3.140455      -0.493397       3.877864      -0.934814      -0.338354       0.107886
      4   2   -1.0000       1.960453      -1.188799       3.453626      -0.055148      -0.761929       0.645308
      5   2   -1.0000       2.440600       4.128713      -2.356714       0.509398       0.769859       0.384489
ITEM: TIMESTEP
2600
ITEM: NUMBER OF ATOMS
5
ITEM: BOX BOUNDS ff ff ff
-5.00000000    5.00000000     
-5.00000000    5.00000000     
-5.00000000    5.00000000     
ITEM: ATOMS id type q x y z mux muy muz
      1   1    1.0000      -2.710102      -4.879020      -0.641592       0.253485      -0.272452      -0.928179
      2   2   -1.0000      -3.891777       4.476345      -1.325284      -0.138763       0.897262      -0.419125
      3   1    1.0000      -3.142421      -0.527681       3.841135      -0.938405      -0.333381       0.090846
      4   2   -1.0000       1.957587      -1.237344       3.483970      -0.083326      -0.706195       0.703097
      5   2   -1.0000       2.444582       4.136854      -2.334399       0.517466       0.746931       0.417519
ITEM: TIMESTEP
2700
ITEM: NUMBER OF ATOMS
5
ITEM: BOX BOUNDS ff ff ff
-5.00000000    5.00000000     
-5.00000000    5.00000000     
-5.00000000    5.00000000     
ITEM: ATOMS id type q x y z mux muy muz
      1   1    1.0000      -2.726783      -4.891233      -0.657558       0.283049      -0.225741      -0.932161
      2   2   -1.0000      -3.874458       4.563348      -1.325146      -0.400081       0.855222      -0.329440
      3   1    1.0000      -3.144125      -0.561669       3.804239      -0.942138      -0.327072       0.073481
      4   2   -1.0000       1.954497      -1.286277       3.514533      -0.106507      -0.649781       0.752622
      5   2   -1.0000       2.448738       4.144986      -2.312238       0.522902       0.724392       0.449256
ITEM: TIMESTEP
2800
ITEM: NUMBER OF ATOMS
5
ITEM: BOX BOUNDS ff ff ff
-5.00000000    5.00000000     
-5.00000000    5.00000000     
-5.00000000    5.00000000     
ITEM: ATOMS id type q x y z mux muy muz
      1   1    1.0000      -2.743304      -4.903247      -0.673594       0.311465      -0.179804      -0.933092
      2   2   -1.0000      -3.857532       4.650267      -1.324842      -0.633748       0.744023      -0.211646
      3   1    1.0000      -3.145561      -0.595364       3.767191      -0.945927      -0.319529       0.055881
      4   2   -1.0000       1.951176      -1.335596       3.545307      -0.125046      -0.593509       0.795054
      5   2   -1.0000       2.453091       4.153096      -2.290232       0.525739       0.702459       0.479739
ITEM: TIMESTEP
2900
ITEM: NUMBER OF ATOMS
5
ITEM: BOX BOUNDS ff ff ff
-5.00000000    5.00000000     
-5.00000000    5.00000000     
-5.00000000    5.00000000     
ITEM: ATOMS id type q x y z mux muy muz
      1   1    1.0000      -2.759652      -4.915065      -0.689700       0.338696      -0.134947      -0.931168
      2   2   -1.0000      -3.841026       4.737118      -1.324376      -0.818419       0.569777      -0.074455
      3   1    1.0000      -3.146727      -0.628770       3.730012      -0.949686      -0.310869       0.038167
      4   2   -1.0000       1.947614      -1.385296       3.576276      -0.139273      -0.537947       0.831394
      5   2   -1.0000       2.457660       4.161167      -2.268381       0.526027       0.681345       0.508985
ITEM: TIMESTEP
3000
ITEM: NUMBER OF ATOMS
5
ITEM: BOX BOUNDS ff ff ff
-5.00000000    5.00000000     
-5.00000000    5.00000000     
-5.00000000    5.00000000     
ITEM: ATOMS id type q x y z mux muy muz
      1   1    1.0000      -2.775816      -4.926690      -0.705877       0.364708      -0.091481      -0.926617
      2   2   -1.0000      -3.824954       4.823919      -1.323758      -0.935929       0.344956       0.071003
      3   1    1.0000      -3.147619      -0.661889       3.692723      -0.953334      -0.301222       0.020486
      4   2   -1.0000       1.943800      -1.435366       3.607425      -0.149491      -0.483499       0.862486
      5   2   -1.0000       2.462459       4.169181      -2.246684       0.523848       0.661244       0.536972
ITEM: TIMESTEP
3100
ITEM: NUMBER OF ATOMS
5
ITEM: BOX BOUNDS ff ff ff
-5.00000000    5.00000000     
-5.00000000    5.00000000     
-5.00000000    5.00000000     
ITEM: ATOMS id type q x y z mux muy muz
      1   1    1.0000      -2.791787      -4.938129      -0.722124       0.389473      -0.049713      -0.919695
      2   2   -1.0000      -3.809323       4.910687      -1.322999      -0.973310       0.087566       0.212134
      3   1    1.0000      -3.148237      -0.694727       3.655351      -0.956801      -0.290729       0.003001
      4   2   -1.0000       1.939723      -1.485793       3.638736      -0.155976      -0.430452       0.889035
      5   2   -1.0000       2.467495       4.177116      -2.225135       0.519333       0.642334       0.563650
ITEM: TIMESTEP
3200
ITEM: NUMBER OF ATOMS
5
ITEM: BOX BOUNDS ff ff ff
-5.00000000    5.00000000     
-5.00000000    5.00000000     
-5.00000000    5.00000000     
ITEM: ATOMS id type q x y z mux muy muz
      1   1    1.0000      -2.807555      -4.949388      -0.738442       0.412968      -0.009926      -0.910691
      2   2   -1.0000      -3.794129       4.997439      -1.322111      -0.924441      -0.180264       0.336027
      3   1    1.0000      -3.148583      -0.727287       3.617921      -0.960033      -0.279530      -0.014119
      4   2   -1.0000       1.935371      -1.536563       3.670190      -0.158985      -0.379015       0.911631
      5   2   -1.0000       2.472765       4.184954      -2.203728       0.512669       0.624755       0.588941
ITEM: TIMESTEP
3300
ITEM: NUMBER OF ATOMS
5
ITEM: BOX BOUNDS ff ff ff
-5.00000000    5.00000000     
-5.00000000    5.00000000     
-5.00000000    5.00000000     
ITEM: ATOMS id type q x y z mux muy muz
      1   1    1.0000      -2.823110      -4.960476      -0.754832       0.435192       0.027639      -0.899914
      2   2   -1.0000      -3.779355       4.915783      -1.321107      -0.791158      -0.434204       0.430738
      3   1    1.0000      -3.148660      -0.759574       3.580457      -0.962997      -0.267756      -0.030726
      4   2   -1.0000       1.930733      -1.587659       3.701766      -0.158767      -0.329338       0.930768
      5   2   -1.0000       2.478260       4.192679      -2.182455       0.504102       0.608601       0.612769
ITEM: TIMESTEP
3400
ITEM: NUMBER OF ATOMS
5
ITEM: BOX BOUNDS ff ff ff
-5.00000000    5.00000000     
-5.00000000    5.00000000     
-5.00000000    5.00000000     
ITEM: ATOMS id type q x y z mux muy muz
      1   1    1.0000      -2.838440      -4.971395      -0.771287       0.456158       0.062825      -0.887678
      2   2   -1.0000      -3.764989       4.828981      -1.319999      -0.583618      -0.650081       0.486605
      3   1    1.0000      -3.148471      -0.791577       3.542992      -0.965679      -0.255504      -0.046718
      4   2   -1.0000       1.925801      -1.639048       3.733437      -0.155576      -0.281505       0.946864
      5   2   -1.0000       2.483968       4.200282      -2.161313       0.493916       0.593889       0.635093
ITEM: TIMESTEP
3500
ITEM: NUMBER OF ATOMS
5
ITEM: BOX BOUNDS ff ff ff
-5.00000000    5.00000000     
-5.00000000    5.00000000     
-5.00000000    5.00000000     
ITEM: ATOMS id type q x y z mux muy muz
      1   1    1.0000      -2.853543      -4.982153      -0.787811       0.475903       0.095538      -0.874293
      2   2   -1.0000      -3.751006       4.742153      -1.318795      -0.319726      -0.806457       0.497395
      3   1    1.0000      -3.148022      -0.823302       3.505537      -0.968081      -0.242843      -0.062027
      4   2   -1.0000       1.920568      -1.690720       3.765188      -0.149662      -0.235554       0.960268
      5   2   -1.0000       2.489872       4.207763      -2.140291       0.482419       0.580582       0.655894
ITEM: TIMESTEP
3600
ITEM: NUMBER OF ATOMS
5
ITEM: BOX BOUNDS ff ff ff
-5.00000000    5.00000000     
-5.00000000    5.00000000     
-5.00000000    5.00000000     
ITEM: ATOMS id type q x y z mux muy muz
      1   1    1.0000      -2.868415      -4.992757      -0.804404       0.494479       0.125745      -0.860046
      2   2   -1.0000      -3.737374       4.655295      -1.317502      -0.023684      -0.887015       0.461134
      3   1    1.0000      -3.147321      -0.854748       3.468105      -0.970216      -0.229808      -0.076606
      4   2   -1.0000       1.915027      -1.742666       3.797006      -0.141265      -0.191481       0.971277
      5   2   -1.0000       2.495952       4.215124      -2.119376       0.469926       0.568602       0.675175
ITEM: TIMESTEP
3700
ITEM: NUMBER OF ATOMS
5
ITEM: BOX BOUNDS ff ff ff
-5.00000000    5.00000000     
-5.00000000    5.00000000     
-5.00000000    5.00000000     
ITEM: ATOMS id type q x y z mux muy muz
      1   1    1.0000      -2.883055      -4.996775      -0.821067       0.511950       0.153476      -0.845194
      2   2   -1.0000      -3.724060       4.568399      -1.316125       0.276263      -0.882541       0.380526
      3   1    1.0000      -3.146375      -0.885912       3.430705      -0.972107      -0.216397      -0.090442
      4   2   -1.0000       1.909172      -1.794873       3.828875      -0.130614      -0.149245       0.980136
      5   2   -1.0000       2.502187       4.222371      -2.098558       0.456745       0.557840       0.692963
ITEM: TIMESTEP
3800
ITEM: NUMBER OF ATOMS
5
ITEM: BOX BOUNDS ff ff ff
-5.00000000    5.00000000     
-5.00000000    5.00000000     
-5.00000000    5.00000000     
ITEM: ATOMS id type q x y z mux muy muz
      1   1    1.0000      -2.897459      -4.986238      -0.837798       0.528396       0.178816      -0.829953
      2   2   -1.0000      -3.711030       4.481457      -1.314664       0.550705      -0.792229       0.262863
      3   1    1.0000      -3.145193      -0.916780       3.393347      -0.973778      -0.202564      -0.103558
      4   2   -1.0000       1.903002      -1.847324       3.860779      -0.117928      -0.108772       0.987047
      5   2   -1.0000       2.508549       4.229510      -2.077833       0.443155       0.548160       0.709319
ITEM: TIMESTEP
3900
ITEM: NUMBER OF ATOMS
5
ITEM: BOX BOUNDS ff ff ff
-5.00000000    5.00000000     
-5.00000000    5.00000000     
-5.00000000    5.00000000     
ITEM: ATOMS id type q x y z mux muy muz