ITEM: TIMESTEP
0
ITEM: NUMBER OF ATOMS
5
ITEM: BOX BOUNDS ff ff ff
-5.00000000    5.00000000     
-5.00000000    5.00000000     
-5.00000000    5.00000000     
ITEM: ATOMS id type q x y z mux muy muz
      1   1    1.0000       1.445364       3.013594       2.863869       0.544298       0.039926      -0.837941
      2   2   -1.0000      -3.089505       1.501320      -3.004050       0.730919       0.670292       0.128323
      3   1    1.0000       0.832931       1.773895       4.972258      -0.887170       0.397814       0.233824
      4   2   -1.0000      -4.694731      -4.087743      -4.229284      -0.065235      -0.993260       0.095812
      5   2   -1.0000      -1.016118       3.216347       3.440509       0.024599      -0.807484      -0.589376
ITEM: TIMESTEP
100
ITEM: NUMBER OF ATOMS
5
ITEM: BOX BOUNDS ff ff ff
-5.00000000    5.00000000     
-5.00000000    5.00000000     
-5.00000000    5.00000000     
ITEM: ATOMS id type q x y z mux muy muz
      1   1    1.0000       1.456474       3.060640       2.886828       0.525138       0.047805      -0.849673
      2   2   -1.0000      -3.085018       1.470003      -3.057018       0.745345       0.654187       0.128452
      3   1    1.0000       0.804896       1.729468       4.962624      -0.912408       0.363647       0.187809
      4   2   -1.0000      -4.709862      -4.104609      -4.184387      -0.148674      -0.984269       0.095449
      5   2   -1.0000      -0.988549       3.261910       3.435254       0.293657      -0.785809      -0.544307
ITEM: TIMESTEP
200
ITEM: NUMBER OF ATOMS
5
ITEM: BOX BOUNDS ff ff ff
-5.00000000    5.00000000     
-5.00000000    5.00000000     
-5.00000000    5.00000000     
ITEM: ATOMS id type q x y z mux muy muz
      1   1    1.0000       1.467329       3.107852       2.909875       0.497958       0.065601      -0.864716
      2   2   -1.0000      -3.080285       1.438994      -3.110078       0.761297       0.635817       0.127135
      3   1    1.0000       0.775489       1.686178       4.952518      -0.934960       0.327703       0.135869
      4   2   -1.0000      -4.725127      -4.122010      -4.139312      -0.234330      -0.967512       0.094920
      5   2   -1.0000      -0.959466       3.306399       3.430298       0.538347      -0.700198      -0.468940
ITEM: TIMESTEP
300
ITEM: NUMBER OF ATOMS
5
ITEM: BOX BOUNDS ff ff ff
-5.00000000    5.00000000     
-5.00000000    5.00000000     
-5.00000000    5.00000000     
ITEM: ATOMS id type q x y z mux muy muz
      1   1    1.0000       1.477870       3.155204       2.932824       0.462955       0.094181      -0.881364
      2   2   -1.0000      -3.075315       1.408345      -3.163173       0.778673       0.614977       0.124387
      3   1    1.0000       0.744778       1.643844       4.942184      -0.953867       0.289395       0.079920
      4   2   -1.0000      -4.740500      -4.139934      -4.094111      -0.320784      -0.942464       0.094130
      5   2   -1.0000      -0.928893       3.349954       3.425577       0.741876      -0.558873      -0.370514
ITEM: TIMESTEP
400
ITEM: NUMBER OF ATOMS
5
ITEM: BOX BOUNDS ff ff ff
-5.00000000    5.00000000     
-5.00000000    5.00000000     
-5.00000000    5.00000000     
ITEM: ATOMS id type q x y z mux muy muz
      1   1    1.0000       1.488027       3.202666       2.955488       0.420330       0.133629      -0.897478
      2   2   -1.0000      -3.070123       1.378111      -3.216231       0.797233       0.591570       0.120273
      3   1    1.0000       0.712795       1.602302       4.931750      -0.968408       0.248424       0.021710
      4   2   -1.0000      -4.755953      -4.158359      -4.048851      -0.406144      -0.909064       0.093003
      5   2   -1.0000      -0.896804       3.392692       3.421145       0.891324      -0.373473      -0.257020
ITEM: TIMESTEP
500
ITEM: NUMBER OF ATOMS
5
ITEM: BOX BOUNDS ff ff ff
-5.00000000    5.00000000     
-5.00000000    5.00000000     
-5.00000000    5.00000000     
ITEM: ATOMS id type q x y z mux muy muz
      1   1    1.0000       1.497727       3.250203       2.977694       0.370304       0.183064      -0.910693
      2   2   -1.0000      -3.064728       1.348350      -3.269178       0.816618       0.565624       0.114909
      3   1    1.0000       0.679537       1.561436       4.921225      -0.978063       0.204943      -0.037310
      4   2   -1.0000      -4.771455      -4.177259      -4.003601      -0.488354      -0.867836       0.091496
      5   2   -1.0000      -0.863141       3.434683       3.417161       0.977957      -0.158004      -0.136511
ITEM: TIMESTEP
600
ITEM: NUMBER OF ATOMS
5
ITEM: BOX BOUNDS ff ff ff
-5.00000000    5.00000000     
-5.00000000    5.00000000     
-5.00000000    5.00000000     
ITEM: ATOMS id type q x y z mux muy muz
      1   1    1.0000       1.506905       3.297772       2.999301       0.313051       0.240641      -0.918744
      2   2   -1.0000      -3.059148       1.319108      -3.321949       0.836396       0.537287       0.108461
      3   1    1.0000       0.644989       1.521199       4.910514      -0.982486       0.159663      -0.096068
      4   2   -1.0000      -4.786977      -4.196608      -3.958422      -0.565538      -0.819841       0.089599
      5   2   -1.0000      -0.827829       3.475941       3.413857       0.997256       0.072147      -0.016615
ITEM: TIMESTEP
700
ITEM: NUMBER OF ATOMS
5
ITEM: BOX BOUNDS ff ff ff
-5.00000000    5.00000000     
-5.00000000    5.00000000     
-5.00000000    5.00000000     
ITEM: ATOMS id type q x y z mux muy muz
      1   1    1.0000       1.515498       3.345318       3.020216       0.248526       0.303742      -0.919769
      2   2   -1.0000      -3.053403       1.290421      -3.374495       0.856115       0.506795       0.101121
      3   1    1.0000       0.609142       1.481624       4.899447      -0.981508       0.113860      -0.153878
      4   2   -1.0000      -4.802496      -4.216382      -3.913358      -0.636258      -0.766517       0.087333
      5   2   -1.0000      -0.790800       3.516431       3.411491       0.948797       0.301026       0.095748
ITEM: TIMESTEP
800
ITEM: NUMBER OF ATOMS
5
ITEM: BOX BOUNDS ff ff ff
-5.00000000    5.00000000     
-5.00000000    5.00000000     
-5.00000000    5.00000000     
ITEM: ATOMS id type q x y z mux muy muz
      1   1    1.0000       1.523437       3.392756       3.040410       0.176226       0.369288      -0.912453
      2   2   -1.0000      -3.047511       1.262310      -3.426789       0.875351       0.474443       0.093090
      3   1    1.0000       0.572010       1.442810       4.887818      -0.975160       0.069285      -0.210388
      4   2   -1.0000      -4.817996      -4.236562      -3.868435      -0.699634      -0.709459       0.084735
      5   2   -1.0000      -0.752001       3.556099       3.410296       0.836170       0.512826       0.194500
ITEM: TIMESTEP
900
ITEM: NUMBER OF ATOMS
5
ITEM: BOX BOUNDS ff ff ff
-5.00000000    5.00000000     
-5.00000000    5.00000000     
-5.00000000    5.00000000     
ITEM: ATOMS id type q x y z mux muy muz
      1   1    1.0000       1.530623       3.439957       3.059926       0.094956       0.434014      -0.895888
      2   2   -1.0000      -3.041486       1.234778      -3.478825       0.893731       0.440563       0.084559
      3   1    1.0000       0.533652       1.404906       4.875422      -0.963713       0.027976      -0.265470
      4   2   -1.0000      -4.833468      -4.257135      -3.823655      -0.755309      -0.650238       0.081849
      5   2   -1.0000      -0.711381       3.594906       3.410432       0.666985       0.692649       0.274531
ITEM: TIMESTEP
1000
ITEM: NUMBER OF ATOMS
5
ITEM: BOX BOUNDS ff ff ff
-5.00000000    5.00000000     
-5.00000000    5.00000000     
-5.00000000    5.00000000     
ITEM: ATOMS id type q x y z mux muy muz
      1   1    1.0000       1.536886       3.486733       3.078888       0.002744       0.494548      -0.869146
      2   2   -1.0000      -3.035341       1.207821      -3.530611       0.910945       0.405522       0.075702
      3   1    1.0000       0.494172       1.368082       4.862090      -0.947687      -0.007983      -0.319102
      4   2   -1.0000      -4.848908      -4.278092      -3.779009      -0.803334      -0.590304       0.078717
      5   2   -1.0000      -0.668868       3.632868       3.411942       0.452867       0.827487       0.331928
ITEM: TIMESTEP
1100
ITEM: NUMBER OF ATOMS
5
ITEM: BOX BOUNDS ff ff ff
-5.00000000    5.00000000     
-5.00000000    5.00000000     
-5.00000000    5.00000000     
ITEM: ATOMS id type q x y z mux muy muz
      1   1    1.0000       1.541929       3.532817       3.097496      -0.102926       0.547204      -0.830646
      2   2   -1.0000      -3.029088       1.181431      -3.582156       0.926742       0.369735       0.066671
      3   1    1.0000       0.453733       1.332503       4.847714      -0.927815      -0.036746      -0.371226
      4   2   -1.0000      -4.864315      -4.299425      -3.734483      -0.844043      -0.530952       0.075373
      5   2   -1.0000      -0.624318       3.670086       3.414729       0.209144       0.907487       0.364317
ITEM: TIMESTEP
1200
ITEM: NUMBER OF ATOMS
5
ITEM: BOX BOUNDS ff ff ff
-5.00000000    5.00000000     
-5.00000000    5.00000000     
-5.00000000    5.00000000     
ITEM: ATOMS id type q x y z mux muy muz
      1   1    1.0000       1.545263       3.577864       3.116019      -0.224303       0.587495      -0.777520
      2   2   -1.0000      -3.022740       1.155605      -3.633455       0.940925       0.333678       0.057606
      3   1    1.0000       0.412548       1.298303       4.832265      -0.904973      -0.056988      -0.421634
      4   2   -1.0000      -4.879682      -4.321117      -3.690072      -0.877942      -0.473344       0.071851
      5   2   -1.0000      -0.577448       3.706757       3.418543      -0.046067       0.927380       0.371274
ITEM: TIMESTEP
1300
ITEM: NUMBER OF ATOMS
5
ITEM: BOX BOUNDS ff ff ff
-5.00000000    5.00000000     
-5.00000000    5.00000000     
-5.00000000    5.00000000     
ITEM: ATOMS id type q x y z mux muy muz
      1   1    1.0000       1.546118       3.621451       3.134782      -0.361818       0.609586      -0.705331
      2   2   -1.0000      -3.016311       1.130362      -3.684450       0.953360       0.297893       0.048634
      3   1    1.0000       0.370887       1.265582       4.815801      -0.880088      -0.068153      -0.469894
      4   2   -1.0000      -4.894990      -4.343131      -3.645816      -0.905653      -0.418502       0.068181
      5   2   -1.0000      -0.527764       3.743149       3.422983      -0.293645       0.887701       0.354625
ITEM: TIMESTEP
1400
ITEM: NUMBER OF ATOMS
5
ITEM: BOX BOUNDS ff ff ff
-5.00000000    5.00000000     
-5.00000000    5.00000000     
-5.00000000    5.00000000     
ITEM: ATOMS id type q x y z mux muy muz
      1   1    1.0000       1.543359       3.663094       3.154131      -0.511896       0.606213      -0.608662
      2   2   -1.0000      -3.009828       1.105764      -3.734995       0.963988       0.262940       0.039870
      3   1    1.0000       0.329094       1.234406       4.798472      -0.854056      -0.070612      -0.515366
      4   2   -1.0000      -4.910191      -4.365387      -3.601829      -0.927886      -0.367263       0.064388
      5   2   -1.0000      -0.474493       3.779535       3.427521      -0.516035       0.795200       0.318378
ITEM: TIMESTEP
1500
ITEM: NUMBER OF ATOMS
5
ITEM: BOX BOUNDS ff ff ff
-5.00000000    5.00000000     
-5.00000000    5.00000000     
-5.00000000    5.00000000     
ITEM: ATOMS id type q x y z mux muy muz
      1   1    1.0000       1.535412       3.702293       3.174379      -0.664959       0.569719      -0.482959
      2   2   -1.0000      -3.003339       1.081946      -3.784784       0.972849       0.229301       0.031395
      3   1    1.0000       0.287614       1.204845       4.780533      -0.827676      -0.065650      -0.557353
      4   2   -1.0000      -4.925190      -4.387735      -3.558365      -0.945429      -0.320165       0.060490
      5   2   -1.0000      -0.416556       3.816063       3.431538      -0.699997       0.661907       0.268112
ITEM: TIMESTEP
1600
ITEM: NUMBER OF ATOMS
5
ITEM: BOX BOUNDS ff ff ff
-5.00000000    5.00000000     
-5.00000000    5.00000000     
-5.00000000    5.00000000     
ITEM: ATOMS id type q x y z mux muy muz
      1   1    1.0000       1.520266       3.738605       3.195718      -0.805207       0.494478      -0.327312
      2   2   -1.0000      -2.996919       1.059148      -3.833274       0.980081       0.197235       0.023236
      3   1    1.0000       0.247049       1.177010       4.762351      -0.801581      -0.055232      -0.595330
      4   2   -1.0000      -4.939824      -4.409911      -3.515887      -0.959119      -0.277308       0.056483
      5   2   -1.0000      -0.352632       3.852561       3.434393      -0.838494       0.502872       0.209878
ITEM: TIMESTEP
1700
ITEM: NUMBER OF ATOMS
5
ITEM: BOX BOUNDS ff ff ff
-5.00000000    5.00000000     
-5.00000000    5.00000000     
-5.00000000    5.00000000     
ITEM: ATOMS id type q x y z mux muy muz
      1   1    1.0000       1.495579       3.771761       3.218097      -0.913327       0.379849      -0.146798
      2   2   -1.0000      -2.990688       1.037745      -3.879611       0.985895       0.166663       0.015338
      3   1    1.0000       0.208206       1.151113       4.744425      -0.776169      -0.041586      -0.629152
      4   2   -1.0000      -4.953830      -4.431499      -3.475134      -0.969786      -0.238280       0.052323
      5   2   -1.0000      -0.281327       3.888292       3.435523      -0.930913       0.333471       0.148989
ITEM: TIMESTEP
1800
ITEM: NUMBER OF ATOMS
5
ITEM: BOX BOUNDS ff ff ff
-5.00000000    5.00000000     
-5.00000000    5.00000000     
-5.00000000    5.00000000     
ITEM: ATOMS id type q x y z mux muy muz
      1   1    1.0000       1.458954       3.801851       3.241078      -0.971554       0.232075       0.047167
      2   2   -1.0000      -2.984816       1.018252      -3.922608       0.990529       0.137094       0.007552
      3   1    1.0000       0.172115       1.127499       4.727383      -0.751549      -0.026778      -0.659134
      4   2   -1.0000      -4.966847      -4.451911      -3.437148      -0.978180      -0.202160       0.047916
      5   2   -1.0000      -0.201466       3.921722       3.434596      -0.981825       0.167543       0.089156
ITEM: TIMESTEP
1900
ITEM: NUMBER OF ATOMS
5
ITEM: BOX BOUNDS ff ff ff
-5.00000000    5.00000000     
-5.00000000    5.00000000     
-5.00000000    5.00000000     
ITEM: ATOMS id type q x y z mux muy muz
      1   1    1.0000       1.408314       3.829568       3.263715      -0.968928       0.064084       0.238897
      2   2   -1.0000      -2.979507       1.001265      -3.960844       0.994197       0.107576      -0.000386
      3   1    1.0000       0.139960       1.106633       4.711931      -0.727467      -0.012420      -0.686031
      4   2   -1.0000      -4.978441      -4.470425      -3.403191      -0.984922      -0.167544       0.043092
      5   2   -1.0000      -0.112385       3.950373       3.431689      -0.999341       0.017031       0.032045
ITEM: TIMESTEP
2000
ITEM: NUMBER OF ATOMS
5
ITEM: BOX BOUNDS ff ff ff
-5.00000000    5.00000000     
-5.00000000    5.00000000     
-5.00000000    5.00000000     
ITEM: ATOMS id type q x y z mux muy muz
      1   1    1.0000       1.342185       3.856501       3.284493      -0.904990      -0.106309       0.411936
      2   2   -1.0000      -2.974975       0.987352      -3.992895       0.997028       0.076525      -0.008914
      3   1    1.0000       0.112897       1.089021       4.698762      -0.703163       0.000438      -0.711029
      4   2   -1.0000      -4.988176      -4.486290      -3.374544      -0.990481      -0.132428       0.037557
      5   2   -1.0000      -0.013992       3.970829       3.427485      -0.994018      -0.106756      -0.023073
ITEM: TIMESTEP
2100
ITEM: NUMBER OF ATOMS
5
ITEM: BOX BOUNDS ff ff ff
-5.00000000    5.00000000     
-5.00000000    5.00000000     
-5.00000000    5.00000000     
ITEM: ATOMS id type q x y z mux muy muz
      1   1    1.0000       1.259380       3.885460       3.301322      -0.792720      -0.257776       0.552400
      2   2   -1.0000      -2.971396       0.976908      -4.017656       0.998974       0.041199      -0.018794
      3   1    1.0000       0.091830       1.075094       4.688426      -0.676986       0.011292      -0.735909
      4   2   -1.0000      -4.995708      -4.498870      -3.352233      -0.995126      -0.093689       0.030770
      5   2   -1.0000       0.093834       3.978821       3.423442      -0.978598      -0.189522      -0.080166
ITEM: TIMESTEP
2200
ITEM: NUMBER OF ATOMS
5
ITEM: BOX BOUNDS ff ff ff
-5.00000000    5.00000000     
-5.00000000    5.00000000     
-5.00000000    5.00000000     
ITEM: ATOMS id type q x y z mux muy muz
      1   1    1.0000       1.171717       3.919825       3.309902      -0.669071      -0.360896       0.649690
      2   2   -1.0000      -2.968878       0.970045      -4.034588       0.999499      -0.003498      -0.031467
      3   1    1.0000       0.077229       1.065121       4.681226      -0.645511       0.020083      -0.763487
      4   2   -1.0000      -4.999131      -4.507774      -3.336800      -0.998711      -0.045906       0.021669
      5   2   -1.0000       0.198741       3.970196       3.423560      -0.967863      -0.203586      -0.147630
ITEM: TIMESTEP
2300
ITEM: NUMBER OF ATOMS
5
ITEM: BOX BOUNDS ff ff ff
-5.00000000    5.00000000     
-5.00000000    5.00000000     
-5.00000000    5.00000000     
ITEM: ATOMS id type q x y z mux muy muz
      1   1    1.0000       1.237217       3.975711       3.285825      -0.626061      -0.366145       0.688466
      2   2   -1.0000      -2.966011       0.962805      -4.053285       0.996910      -0.062036      -0.048194
      3   1    1.0000       0.060863       1.053488       4.673122      -0.605452       0.026497      -0.795441
      4   2   -1.0000      -4.993396      -4.517971      -3.319535      -0.999840       0.015327       0.009262
      5   2   -1.0000       0.152447       3.943379       3.457174      -0.968861      -0.105004      -0.224240
ITEM: TIMESTEP
2400
ITEM: NUMBER OF ATOMS
5
ITEM: BOX BOUNDS ff ff ff
-5.00000000    5.00000000     
-5.00000000    5.00000000     
-5.00000000    5.00000000     
ITEM: ATOMS id type q x y z mux muy muz
      1   1    1.0000       1.287151       4.022528       3.263318      -0.690876      -0.289756       0.662369
      2   2   -1.0000      -2.963991       0.958129      -4.066033       0.991480      -0.113962      -0.063093
      3   1    1.0000       0.049561       1.045235       4.667458      -0.570547       0.029619      -0.820731
      4   2   -1.0000      -4.989442      -4.525205      -3.307588      -0.997646       0.068547      -0.002109
      5   2   -1.0000       0.115688       3.916725       3.486146      -0.964855       0.029148      -0.261162
ITEM: TIMESTEP
2500
ITEM: NUMBER OF ATOMS
5
ITEM: BOX BOUNDS ff ff ff
-5.00000000    5.00000000     
-5.00000000    5.00000000     
-5.00000000    5.00000000     
ITEM: ATOMS id type q x y z mux muy muz
      1   1    1.0000       1.301309       4.100063       3.235287      -0.794834      -0.182228       0.578820
      2   2   -1.0000      -2.960530       0.950759      -4.087226       0.985364      -0.153350      -0.074447
      3   1    1.0000       0.030653       1.031280       4.657795      -0.544663       0.031361      -0.838068
      4   2   -1.0000      -4.982794      -4.537665      -3.287450      -0.994083       0.108060      -0.011057
      5   2   -1.0000       0.123450       3.872975       3.524895      -0.960124       0.125984      -0.249581
ITEM: TIMESTEP
2600
ITEM: NUMBER OF ATOMS
5
ITEM: BOX BOUNDS ff ff ff
-5.00000000    5.00000000     
-5.00000000    5.00000000     
-5.00000000    5.00000000     
ITEM: ATOMS id type q x y z mux muy muz
      1   1    1.0000       1.270089       4.176279       3.216733      -0.888646      -0.082165       0.451173
      2   2   -1.0000      -2.956477       0.942618      -4.111558       0.979347      -0.184188      -0.083388
      3   1    1.0000       0.009007       1.015279       4.646501      -0.524584       0.033455      -0.850701
      4   2   -1.0000      -4.975100      -4.552309      -3.264109      -0.990227       0.138253      -0.018372
      5   2   -1.0000       0.179695       3.835546       3.555734      -0.967506       0.161965      -0.194161
ITEM: TIMESTEP
2700
ITEM: NUMBER OF ATOMS
5
ITEM: BOX BOUNDS ff ff ff
-5.00000000    5.00000000     
-5.00000000    5.00000000     
-5.00000000    5.00000000     
ITEM: ATOMS id type q x y z mux muy muz
      1   1    1.0000       1.201078       4.224348       3.218156      -0.950753      -0.031209       0.308373
      2   2   -1.0000      -2.952572       0.935203      -4.134575       0.973537      -0.209702      -0.090835
      3   1    1.0000      -0.011280       1.000216       4.635645      -0.507528       0.036476      -0.860863
      4   2   -1.0000      -4.967765      -4.566461      -3.241826      -0.986390       0.162552      -0.024724
      5   2   -1.0000       0.272116       3.824106       3.565901      -0.988503       0.119602      -0.092505
ITEM: TIMESTEP
2800
ITEM: NUMBER OF ATOMS
5
ITEM: BOX BOUNDS ff ff ff
-5.00000000    5.00000000     
-5.00000000    5.00000000     
-5.00000000    5.00000000     
ITEM: ATOMS id type q x y z mux muy muz
      1   1    1.0000       1.166811       4.252718       3.223375      -0.976382      -0.082227       0.199792
      2   2   -1.0000      -2.949302       0.929380      -4.153467       0.968119      -0.230912      -0.097087
      3   1    1.0000      -0.027688       0.987820       4.626582      -0.492534       0.039642      -0.869390
      4   2   -1.0000      -4.961689      -4.578350      -3.223344      -0.982804       0.182148      -0.030298
      5   2   -1.0000       0.325286       3.825845       3.570155      -0.997893      -0.021271       0.061301
ITEM: TIMESTEP
2900
ITEM: NUMBER OF ATOMS
5
ITEM: BOX BOUNDS ff ff ff
-5.00000000    5.00000000     
-5.00000000    5.00000000     
-5.00000000    5.00000000     
ITEM: ATOMS id type q x y z mux muy muz
      1   1    1.0000       1.233176       4.322721       3.206647      -0.959773      -0.230172       0.160801
      2   2   -1.0000      -2.943588       0.919765      -4.185910       0.963601      -0.247147      -0.101937
      3   1    1.0000      -0.055537       0.966258       4.610780      -0.480524       0.041507      -0.875999
      4   2   -1.0000      -4.951171      -4.599172      -3.191310      -0.979851       0.196665      -0.034846
      5   2   -1.0000       0.290957       3.807840       3.603093      -0.951244      -0.209974       0.225933
ITEM: TIMESTEP
3000
ITEM: NUMBER OF ATOMS
5
ITEM: BOX BOUNDS ff ff ff
-5.00000000    5.00000000     
-5.00000000    5.00000000     
-5.00000000    5.00000000     
ITEM: ATOMS id type q x y z mux muy muz
      1   1    1.0000       1.274718       4.368684       3.213227      -0.900139      -0.402908       0.165575
      2   2   -1.0000      -2.936878       0.908895      -4.223585       0.959690      -0.260335      -0.105926
      3   1    1.0000      -0.087743       0.940839       4.592208      -0.470892       0.041487      -0.881215
      4   2   -1.0000      -4.938888      -4.623664      -3.153873      -0.977342       0.208074      -0.038827
      5   2   -1.0000       0.286402       3.822658       3.615323      -0.858277      -0.370321       0.355278
ITEM: TIMESTEP
3100
ITEM: NUMBER OF ATOMS
5
ITEM: BOX BOUNDS ff ff ff
-5.00000000    5.00000000     
-5.00000000    5.00000000     
-5.00000000    5.00000000     
ITEM: ATOMS id type q x y z mux muy muz
      1   1    1.0000       1.276394       4.395347       3.248142      -0.801632      -0.565837       0.192910
      2   2   -1.0000      -2.927982       0.894922      -4.273081       0.955737      -0.272976      -0.109777
      3   1    1.0000      -0.130080       0.906897       4.567526      -0.462523       0.038979      -0.885750
      4   2   -1.0000      -4.922674      -4.656166      -3.104438      -0.974843       0.218713      -0.042956
      5   2   -1.0000       0.333253       3.876412       3.605152      -0.749316      -0.488812       0.446753
ITEM: TIMESTEP
3200
ITEM: NUMBER OF ATOMS
5
ITEM: BOX BOUNDS ff ff ff
-5.00000000    5.00000000     
-5.00000000    5.00000000     
-5.00000000    5.00000000     
ITEM: ATOMS id type q x y z mux muy muz
      1   1    1.0000       1.237167       4.400263       3.289849      -0.681467      -0.694078       0.232074
      2   2   -1.0000      -2.920809       0.883978      -4.312654       0.951250      -0.286605      -0.113936
      3   1    1.0000      -0.164092       0.879242       4.547533      -0.455007       0.033055      -0.889874
      4   2   -1.0000      -4.909651      -4.682395      -3.064716      -0.972028       0.229960      -0.047753
      5   2   -1.0000       0.411368       3.936325       3.583289      -0.659914      -0.561764       0.498933
ITEM: TIMESTEP
3300
ITEM: NUMBER OF ATOMS
5
ITEM: BOX BOUNDS ff ff ff
-5.00000000    5.00000000     
-5.00000000    5.00000000     
-5.00000000    5.00000000     
ITEM: ATOMS id type q x y z mux muy muz
      1   1    1.0000       1.280883       4.471010       3.292727      -0.581283      -0.765427       0.276101
      2   2   -1.0000      -2.913665       0.873417      -4.351722       0.945660      -0.302665      -0.118834
      3   1    1.0000      -0.197944       0.851322       4.527480      -0.448004       0.022522      -0.893748
      4   2   -1.0000      -4.896727      -4.708551      -3.025282      -0.968523       0.243047      -0.053781
      5   2   -1.0000       0.406238       3.930214       3.600097      -0.635797      -0.584409       0.504211
ITEM: TIMESTEP
3400
ITEM: NUMBER OF ATOMS
5
ITEM: BOX BOUNDS ff ff ff
-5.00000000    5.00000000     
-5.00000000    5.00000000     
-5.00000000    5.00000000     
ITEM: ATOMS id type q x y z mux muy muz
      1   1    1.0000       1.309745       4.538009       3.287754      -0.542193      -0.778765       0.315518
      2   2   -1.0000      -2.908009       0.865351      -4.382343       0.939559      -0.319204      -0.123845
      3   1    1.0000      -0.224738       0.828932       4.511458      -0.442316       0.008985      -0.896814
      4   2   -1.0000      -4.886536      -4.729277      -2.994177      -0.964688       0.256392      -0.060338
      5   2   -1.0000       0.407807       3.914398       3.620608      -0.678730      -0.566405       0.467451
ITEM: TIMESTEP
3500
ITEM: NUMBER OF ATOMS
5
ITEM: BOX BOUNDS ff ff ff
-5.00000000    5.00000000     
-5.00000000    5.00000000     
-5.00000000    5.00000000     
ITEM: ATOMS id type q x y z mux muy muz
      1   1    1.0000       1.280730       4.596204       3.296896      -0.566158      -0.750098       0.341786
      2   2   -1.0000      -2.900295       0.854728      -4.423718       0.934206      -0.332987      -0.127981
      3   1    1.0000      -0.261251       0.798076       4.489405      -0.438533      -0.003995      -0.898706
      4   2   -1.0000      -4.872686      -4.757575      -2.951889      -0.961317       0.267395      -0.066105
      5   2   -1.0000       0.478152       3.925978       3.632607      -0.740141      -0.532539       0.410602
ITEM: TIMESTEP
3600
ITEM: NUMBER OF ATOMS
5
ITEM: BOX BOUNDS ff ff ff
-5.00000000    5.00000000     
-5.00000000    5.00000000     
-5.00000000    5.00000000     
ITEM: ATOMS id type q x y z mux muy muz
      1   1    1.0000       1.227901       4.624511       3.311067      -0.626214      -0.695920       0.351498
      2   2   -1.0000      -2.894041       0.846397      -4.456970       0.929590      -0.344389      -0.131371
      3   1    1.0000      -0.290788       0.772838       4.471382      -0.435936      -0.015970      -0.899836
      4   2   -1.0000      -4.861493      -4.780531      -2.917702      -0.958415       0.276364      -0.071160
      5   2   -1.0000       0.564318       3.954199       3.635524      -0.785973      -0.510429       0.348867
ITEM: TIMESTEP
3700
ITEM: NUMBER OF ATOMS
5
ITEM: BOX BOUNDS ff ff ff
-5.00000000    5.00000000     
-5.00000000    5.00000000     
-5.00000000    5.00000000     
ITEM: ATOMS id type q x y z mux muy muz
      1   1    1.0000       1.231413       4.709572       3.295665      -0.680217      -0.644419       0.349326
      2   2   -1.0000      -2.887269       0.837691      -4.492654       0.925422      -0.354337      -0.134315
      3   1    1.0000      -0.322679       0.745244       4.451712      -0.433892      -0.027388      -0.900548
      4   2   -1.0000      -4.849410      -4.805410      -2.880778      -0.955807       0.284044      -0.075840
      5   2   -1.0000       0.596694       3.930316       3.669355      -0.793013      -0.530053       0.300290
ITEM: TIMESTEP
3800
ITEM: NUMBER OF ATOMS
5
ITEM: BOX BOUNDS ff ff ff
-5.00000000    5.00000000     
-5.00000000    5.00000000     
-5.00000000    5.00000000     
ITEM: ATOMS id type q x y z mux muy muz
      1   1    1.0000       1.237696       4.770390       3.286999      -0.699275      -0.623655       0.349384
      2   2   -1.0000      -2.881104       0.830049      -4.524847       0.921497      -0.363425      -0.136989
      3   1    1.0000      -0.351601       0.719905       4.433678      -0.432040      -0.038384      -0.901037
      4   2   -1.0000      -4.838444      -4.828071      -2.847246      -0.953369       0.290912      -0.080360
      5   2   -1.0000       0.622865       3.925140       3.694717      -0.757977      -0.590120       0.277901
ITEM: TIMESTEP
3900
ITEM: NUMBER OF ATOMS
5
ITEM: BOX BOUNDS ff ff ff
-5.00000000    5.00000000     
-5.00000000    5.00000000     
-5.00000000    5.00000000     
ITEM: ATOMS id type q x y z mux muy muz