ITEM: TIMESTEP
0
ITEM: NUMBER OF ATOMS
5
ITEM: BOX BOUNDS ff ff ff
-5.00000000    5.00000000     
-5.00000000    5.00000000     
-5.00000000    5.00000000     
ITEM: ATOMS id type q x y z mux muy muz
      1   1    1.0000       0.959072       1.443680       2.575246       0.370121      -0.749440      -0.548953
      2   2   -1.0000      -3.819676       3.331719       2.056048      -0.486980       0.022055      -0.873135
      3   1    1.0000       0.773229       3.897208       2.002705       0.480486       0.831257       0.279544
      4   2   -1.0000      -2.982759      -0.702195      -0.058952       0.811979       0.460067       0.359205
      5   2   -1.0000      -4.448214       4.546523      -3.714485       0.159155       0.341042       0.926477
ITEM: TIMESTEP
100
ITEM: NUMBER OF ATOMS
5
ITEM: BOX BOUNDS ff ff ff
-5.00000000    5.00000000     
-5.00000000    5.00000000     
-5.00000000    5.00000000     
ITEM: ATOMS id type q x y z mux muy muz
      1   1    1.0000       0.939145       1.445777       2.589927       0.337867      -0.714041      -0.613182
      2   2   -1.0000      -3.765914       3.294300       2.041170      -0.552446       0.011978      -0.833462
      3   1    1.0000       0.754125       3.882739       1.966780       0.538065       0.723863       0.431866
      4   2   -1.0000      -2.958509      -0.667244       0.003021       0.860984       0.317413       0.397437
      5   2   -1.0000      -4.487196       4.561363      -3.740336       0.166277       0.441368       0.881786
ITEM: TIMESTEP
200
ITEM: NUMBER OF ATOMS
5
ITEM: BOX BOUNDS ff ff ff
-5.00000000    5.00000000     
-5.00000000    5.00000000     
-5.00000000    5.00000000     
ITEM: ATOMS id type q x y z mux muy muz
      1   1    1.0000       0.918666       1.447529       2.604272       0.288325      -0.675469      -0.678682
      2   2   -1.0000      -3.711498       3.257227       2.026657      -0.615286      -0.001121      -0.788303
      3   1    1.0000       0.734526       3.868554       1.931012       0.564603       0.599602       0.567187
      4   2   -1.0000      -2.934077      -0.632690       0.064853       0.888774       0.164446       0.427829
      5   2   -1.0000      -4.525966       4.576314      -3.766234       0.170575       0.540389       0.823944
ITEM: TIMESTEP
300
ITEM: NUMBER OF ATOMS
5
ITEM: BOX BOUNDS ff ff ff
-5.00000000    5.00000000     
-5.00000000    5.00000000     
-5.00000000    5.00000000     
ITEM: ATOMS id type q x y z mux muy muz
      1   1    1.0000       0.897578       1.448901       2.618124       0.219345      -0.633543      -0.741965
      2   2   -1.0000      -3.656347       3.220497       2.012557      -0.674158      -0.017137      -0.738388
      3   1    1.0000       0.714414       3.854719       1.895527       0.561799       0.467520       0.682501
      4   2   -1.0000      -2.909453      -0.598564       0.126550       0.893451       0.005050       0.449132
      5   2   -1.0000      -4.564541       4.591381      -3.792198       0.171787       0.635713       0.752568
ITEM: TIMESTEP
400
ITEM: NUMBER OF ATOMS
5
ITEM: BOX BOUNDS ff ff ff
-5.00000000    5.00000000     
-5.00000000    5.00000000     
-5.00000000    5.00000000     
ITEM: ATOMS id type q x y z mux muy muz
      1   1    1.0000       0.875796       1.449807       2.631312       0.129627      -0.588233      -0.798235
      2   2   -1.0000      -3.600363       3.184112       1.998923      -0.727870      -0.035885      -0.684776
      3   1    1.0000       0.693767       3.841354       1.860458       0.532852       0.335893       0.776688
      4   2   -1.0000      -2.884616      -0.564905       0.188111       0.873872      -0.156346       0.460330
      5   2   -1.0000      -4.602932       4.606566      -3.818245       0.169715       0.724697       0.667841
ITEM: TIMESTEP
500
ITEM: NUMBER OF ATOMS
5
ITEM: BOX BOUNDS ff ff ff
-5.00000000    5.00000000     
-5.00000000    5.00000000     
-5.00000000    5.00000000     
ITEM: ATOMS id type q x y z mux muy muz
      1   1    1.0000       0.853209       1.450107       2.643672       0.019200      -0.539740      -0.841613
      2   2   -1.0000      -3.543437       3.148078       1.985812      -0.775461      -0.057109      -0.628808
      3   1    1.0000       0.672566       3.828637       1.825927       0.481919       0.211677       0.850263
      4   2   -1.0000      -2.859540      -0.531759       0.249534       0.829781      -0.314965       0.460718
      5   2   -1.0000      -4.641148       4.621871      -3.844384       0.164267       0.804611       0.570630
ITEM: TIMESTEP
600
ITEM: NUMBER OF ATOMS
5
ITEM: BOX BOUNDS ff ff ff
-5.00000000    5.00000000     
-5.00000000    5.00000000     
-5.00000000    5.00000000     
ITEM: ATOMS id type q x y z mux muy muz
      1   1    1.0000       0.829680       1.449610       2.655063      -0.110133      -0.488543      -0.865562
      2   2   -1.0000      -3.485456       3.112419       1.973289      -0.816268      -0.080499      -0.572037
      3   1    1.0000       0.650803       3.816797       1.792024       0.413566       0.100156       0.904949
      4   2   -1.0000      -2.834193      -0.499179       0.310801       0.761885      -0.465910       0.449955
      5   2   -1.0000      -4.679183       4.637287      -3.870616       0.155487       0.872855       0.462546
ITEM: TIMESTEP
700
ITEM: NUMBER OF ATOMS
5
ITEM: BOX BOUNDS ff ff ff
-5.00000000    5.00000000     
-5.00000000    5.00000000     
-5.00000000    5.00000000     
ITEM: ATOMS id type q x y z mux muy muz
      1   1    1.0000       0.805045       1.448097       2.665388      -0.254453      -0.435430      -0.863513
      2   2   -1.0000      -3.426316       3.077178       1.961426      -0.849963      -0.105709      -0.516129
      3   1    1.0000       0.628481       3.806091       1.758800       0.332265       0.004818       0.943174
      4   2   -1.0000      -2.808539      -0.467234       0.371875       0.671877      -0.604414       0.428095
      5   2   -1.0000      -4.717020       4.652801      -3.896928       0.143577       0.927214       0.345920
ITEM: TIMESTEP
800
ITEM: NUMBER OF ATOMS
5
ITEM: BOX BOUNDS ff ff ff
-5.00000000    5.00000000     
-5.00000000    5.00000000     
-5.00000000    5.00000000     
ITEM: ATOMS id type q x y z mux muy muz
      1   1    1.0000       0.779127       1.445339       2.674598      -0.407583      -0.381493      -0.829662
      2   2   -1.0000      -3.365928       3.042425       1.950305      -0.876553      -0.132383      -0.462741
      3   1    1.0000       0.605612       3.796782       1.726247       0.242011      -0.072570       0.967556
      4   2   -1.0000      -2.782543      -0.436002       0.432699       0.562391      -0.726100       0.395595
      5   2   -1.0000      -4.754616       4.668389      -3.923288       0.128904       0.966103       0.223669
ITEM: TIMESTEP
900
ITEM: NUMBER OF ATOMS
5
ITEM: BOX BOUNDS ff ff ff
-5.00000000    5.00000000     
-5.00000000    5.00000000     
-5.00000000    5.00000000     
ITEM: ATOMS id type q x y z mux muy muz
      1   1    1.0000       0.751751       1.441129       2.682702      -0.561235      -0.328094      -0.759848
      2   2   -1.0000      -3.304227       3.008254       1.940011      -0.896350      -0.160180      -0.413399
      3   1    1.0000       0.582216       3.789104       1.694306       0.146090      -0.131734       0.980461
      4   2   -1.0000      -2.756176      -0.405570       0.493189       0.436876      -0.827235       0.353300
      5   2   -1.0000      -4.791913       4.684017      -3.949648       0.111973       0.988762       0.099051
ITEM: TIMESTEP
1000
ITEM: NUMBER OF ATOMS
5
ITEM: BOX BOUNDS ff ff ff
-5.00000000    5.00000000     
-5.00000000    5.00000000     
-5.00000000    5.00000000     
ITEM: ATOMS id type q x y z mux muy muz
      1   1    1.0000       0.722762       1.435309       2.689756      -0.705514      -0.276796      -0.652407
      2   2   -1.0000      -3.241178       2.974783       1.930638      -0.909894      -0.188797      -0.369389
      3   1    1.0000       0.558314       3.783231       1.662866       0.046994      -0.173579       0.983698
      4   2   -1.0000      -2.729417      -0.376029       0.553241       0.299397      -0.904945       0.302383
      5   2   -1.0000      -4.828829       4.699640      -3.975940       0.093388       0.995324      -0.024667
ITEM: TIMESTEP
1100
ITEM: NUMBER OF ATOMS
5
ITEM: BOX BOUNDS ff ff ff
-5.00000000    5.00000000     
-5.00000000    5.00000000     
-5.00000000    5.00000000     
ITEM: ATOMS id type q x y z mux muy muz
      1   1    1.0000       0.692039       1.427795       2.695852      -0.829781      -0.229268      -0.508822
      2   2   -1.0000      -3.176777       2.942149       1.922273      -0.917863      -0.217990      -0.331673
      3   1    1.0000       0.533914       3.779250       1.631780      -0.053530      -0.199843       0.978365
      4   2   -1.0000      -2.702256      -0.347466       0.612739       0.154375      -0.957341       0.244268
      5   2   -1.0000      -4.865269       4.715206      -4.002082       0.073782       0.986745      -0.144533
ITEM: TIMESTEP
1200
ITEM: NUMBER OF ATOMS
5
ITEM: BOX BOUNDS ff ff ff
-5.00000000    5.00000000     
-5.00000000    5.00000000     
-5.00000000    5.00000000     
ITEM: ATOMS id type q x y z mux muy muz
      1   1    1.0000       0.659520       1.418583       2.701104      -0.923797      -0.187169      -0.334017
      2   2   -1.0000      -3.111045       2.910504       1.914998      -0.920970      -0.247582      -0.300860
      3   1    1.0000       0.509005       3.777143       1.600884      -0.154346      -0.212763       0.964836
      4   2   -1.0000      -2.674701      -0.319955       0.671562       0.006326      -0.983549       0.180532
      5   2   -1.0000      -4.901128       4.730660      -4.027986       0.053756       0.964603      -0.258170
ITEM: TIMESTEP
1300
ITEM: NUMBER OF ATOMS
5
ITEM: BOX BOUNDS ff ff ff
-5.00000000    5.00000000     
-5.00000000    5.00000000     
-5.00000000    5.00000000     
ITEM: ATOMS id type q x y z mux muy muz
      1   1    1.0000       0.625205       1.407759       2.705625      -0.978955      -0.152015      -0.136157
      2   2   -1.0000      -3.044020       2.879998       1.908882      -0.919875      -0.277463      -0.277210
      3   1    1.0000       0.483543       3.776784       1.570015      -0.254734      -0.214805       0.942852
      4   2   -1.0000      -2.646773      -0.293551       0.729598      -0.140366      -0.983651       0.112823
      5   2   -1.0000      -4.936304       4.745944      -4.053558       0.033825       0.930823      -0.363902
ITEM: TIMESTEP
1400
ITEM: NUMBER OF ATOMS
5
ITEM: BOX BOUNDS ff ff ff
-5.00000000    5.00000000     
-5.00000000    5.00000000     
-5.00000000    5.00000000     
ITEM: ATOMS id type q x y z mux muy muz
      1   1    1.0000       0.589167       1.395482       2.709514      -0.989383      -0.125051       0.074055
      2   2   -1.0000      -2.975745       2.850780       1.903968      -0.915124      -0.307578      -0.260662
      3   1    1.0000       0.457445       3.777950       1.539037      -0.354168      -0.208450       0.911654
      4   2   -1.0000      -2.618510      -0.268283       0.786755      -0.281614      -0.958573       0.042794
      5   2   -1.0000      -4.970705       4.761005      -4.078713       0.014394       0.887417      -0.460743
ITEM: TIMESTEP
1500
ITEM: NUMBER OF ATOMS
5
ITEM: BOX BOUNDS ff ff ff
-5.00000000    5.00000000     
-5.00000000    5.00000000     
-5.00000000    5.00000000     
ITEM: ATOMS id type q x y z mux muy muz
      1   1    1.0000       0.551546       1.381969       2.712840      -0.952675      -0.107142       0.284484
      2   2   -1.0000      -2.906258       2.822986       1.900276      -0.907125      -0.337916      -0.250872
      3   1    1.0000       0.430586       3.780334       1.507853      -0.452079      -0.196046       0.870167
      4   2   -1.0000      -2.589968      -0.244155       0.842968      -0.413735      -0.909969      -0.027934
      5   2   -1.0000      -4.995747       4.775800      -4.103376      -0.004250       0.836279      -0.548288
ITEM: TIMESTEP
1600
ITEM: NUMBER OF ATOMS
5
ITEM: BOX BOUNDS ff ff ff
-5.00000000    5.00000000     
-5.00000000    5.00000000     
-5.00000000    5.00000000     
ITEM: ATOMS id type q x y z mux muy muz
      1   1    1.0000       0.512538       1.367474       2.715637      -0.870119      -0.098713       0.482855
      2   2   -1.0000      -2.835583       2.796739       1.897791      -0.896152      -0.368483      -0.247250
      3   1    1.0000       0.402803       3.783573       1.476424      -0.547631      -0.179730       0.817189
      4   2   -1.0000      -2.561211      -0.221146       0.898197      -0.533515      -0.840118      -0.097795
      5   2   -1.0000      -4.963155       4.790293      -4.127488      -0.021929       0.779076      -0.626546
ITEM: TIMESTEP
1700
ITEM: NUMBER OF ATOMS
5
ITEM: BOX BOUNDS ff ff ff
-5.00000000    5.00000000     
-5.00000000    5.00000000     
-5.00000000    5.00000000     
ITEM: ATOMS id type q x y z mux muy muz
      1   1    1.0000       0.472381       1.352262       2.717900      -0.746382      -0.099733       0.658002
      2   2   -1.0000      -2.763715       2.772149       1.896464      -0.882369      -0.399293      -0.248980
      3   1    1.0000       0.373897       3.787271       1.444770      -0.639522      -0.161389       0.751642
      4   2   -1.0000      -2.532314      -0.199212       0.952439      -0.638276      -0.751849      -0.165309
      5   2   -1.0000      -4.931572       4.804464      -4.151012      -0.038552       0.717216      -0.695783
ITEM: TIMESTEP
1800
ITEM: NUMBER OF ATOMS
5
ITEM: BOX BOUNDS ff ff ff
-5.00000000    5.00000000     
-5.00000000    5.00000000     
-5.00000000    5.00000000     
ITEM: ATOMS id type q x y z mux muy muz
      1   1    1.0000       0.431346       1.336601       2.719594      -0.588750      -0.109768       0.800827
      2   2   -1.0000      -2.690641       2.749318       1.896207      -0.865895      -0.430348      -0.255003
      3   1    1.0000       0.343654       3.791022       1.412986      -0.725861      -0.142666       0.672883
      4   2   -1.0000      -2.503359      -0.178304       1.005696      -0.725957      -0.648463      -0.229088
      5   2   -1.0000      -4.901004       4.818297      -4.173923      -0.054088       0.651877      -0.756393
ITEM: TIMESTEP
1900
ITEM: NUMBER OF ATOMS
5
ITEM: BOX BOUNDS ff ff ff
-5.00000000    5.00000000     
-5.00000000    5.00000000     
-5.00000000    5.00000000     
ITEM: ATOMS id type q x y z mux muy muz
      1   1    1.0000       0.389713       1.320736       2.720663      -0.406097      -0.128062       0.904812
      2   2   -1.0000      -2.616333       2.728346       1.896886      -0.846867      -0.461644      -0.264011
      3   1    1.0000       0.311845       3.794425       1.381238      -0.804198      -0.124973       0.581075
      4   2   -1.0000      -2.474432      -0.158363       1.057983      -0.795201      -0.533649      -0.287881
      5   2   -1.0000      -4.871433       4.831789      -4.196209      -0.068539       0.584068      -0.808806
ITEM: TIMESTEP
2000
ITEM: NUMBER OF ATOMS
5
ITEM: BOX BOUNDS ff ff ff
-5.00000000    5.00000000     
-5.00000000    5.00000000     
-5.00000000    5.00000000     
ITEM: ATOMS id type q x y z mux muy muz
      1   1    1.0000       0.347760       1.304887       2.721041      -0.207839      -0.153648       0.966020
      2   2   -1.0000      -2.540751       2.709338       1.898325      -0.825507      -0.493168      -0.274451
      3   1    1.0000       0.278250       3.797107       1.349754      -0.871751      -0.109515       0.477553
      4   2   -1.0000      -2.445611      -0.139338       1.109311      -0.845439      -0.411354      -0.340619
      5   2   -1.0000      -4.842830       4.844940      -4.217870      -0.081927       0.514702      -0.853446
ITEM: TIMESTEP
2100
ITEM: NUMBER OF ATOMS
5
ITEM: BOX BOUNDS ff ff ff
-5.00000000    5.00000000     
-5.00000000    5.00000000     
-5.00000000    5.00000000     
ITEM: ATOMS id type q x y z mux muy muz
      1   1    1.0000       0.305741       1.289234       2.720668      -0.003111      -0.185425       0.982653
      2   2   -1.0000      -2.463856       2.692400       1.900296      -0.802188      -0.524907      -0.284549
      3   1    1.0000       0.242660       3.798726       1.318823      -0.925870      -0.097292       0.365102
      4   2   -1.0000      -2.416967      -0.121181       1.159685      -0.876955      -0.285645      -0.386468
      5   2   -1.0000      -4.815153       4.857755      -4.238911      -0.094283       0.444670      -0.890718
ITEM: TIMESTEP
2200
ITEM: NUMBER OF ATOMS
5
ITEM: BOX BOUNDS ff ff ff
-5.00000000    5.00000000     
-5.00000000    5.00000000     
-5.00000000    5.00000000     
ITEM: ATOMS id type q x y z mux muy muz
      1   1    1.0000       0.263883       1.273917       2.719502       0.199636      -0.222193       0.954346
      2   2   -1.0000      -2.385617       2.677653       1.902526      -0.777465      -0.556843      -0.292359
      3   1    1.0000       0.204895       3.798988       1.288777      -0.964649      -0.089091       0.248021
      4   2   -1.0000      -2.388555      -0.103862       1.209096      -0.890905      -0.160559      -0.424863
      5   2   -1.0000      -4.788359       4.870237      -4.259340      -0.105642       0.374923      -0.921017
ITEM: TIMESTEP
2300
ITEM: NUMBER OF ATOMS
5
ITEM: BOX BOUNDS ff ff ff
-5.00000000    5.00000000     
-5.00000000    5.00000000     
-5.00000000    5.00000000     
ITEM: ATOMS id type q x y z mux muy muz
      1   1    1.0000       0.222372       1.259026       2.717532       0.392511      -0.262580       0.881469
      2   2   -1.0000      -2.306022       2.665229       1.904690      -0.752096      -0.588927      -0.295833
      3   1    1.0000       0.164807       3.797646       1.259989      -0.987573      -0.085454       0.131895
      4   2   -1.0000      -2.360410      -0.087360       1.257514      -0.889316      -0.039979      -0.455542
      5   2   -1.0000      -4.762409       4.882393      -4.279164      -0.116029       0.306541      -0.944759
ITEM: TIMESTEP
2400
ITEM: NUMBER OF ATOMS
5
ITEM: BOX BOUNDS ff ff ff
-5.00000000    5.00000000     
-5.00000000    5.00000000     
-5.00000000    5.00000000     
ITEM: ATOMS id type q x y z mux muy muz
      1   1    1.0000       0.181347       1.244605       2.714794       0.567590      -0.304856       0.764790
      2   2   -1.0000      -2.225080       2.655269       1.906414      -0.727014      -0.621003      -0.292928
      3   1    1.0000       0.122288       3.794504       1.232855      -0.995973      -0.086641       0.023050
      4   2   -1.0000      -2.332546      -0.071665       1.304884      -0.875054       0.072483      -0.478568
      5   2   -1.0000      -4.737270       4.894221      -4.298386      -0.125460       0.240798      -0.962432
ITEM: TIMESTEP
2500
ITEM: NUMBER OF ATOMS
5
ITEM: BOX BOUNDS ff ff ff
-5.00000000    5.00000000     
-5.00000000    5.00000000     
-5.00000000    5.00000000     
ITEM: ATOMS id type q x y z mux muy muz
      1   1    1.0000       0.140893       1.230648       2.711373       0.716117      -0.346650       0.605814
      2   2   -1.0000      -2.142823       2.647926       1.907269      -0.703266      -0.652709      -0.281758
      3   1    1.0000       0.077270       3.789416       1.207793      -0.993077      -0.092600      -0.072274
      4   2   -1.0000      -2.304951      -0.056772       1.351123      -0.851740       0.173635      -0.494358
      5   2   -1.0000      -4.712921       4.905716      -4.316998      -0.133938       0.179149      -0.974662
ITEM: TIMESTEP
2600
ITEM: NUMBER OF ATOMS
5
ITEM: BOX BOUNDS ff ff ff
-5.00000000    5.00000000     
-5.00000000    5.00000000     
-5.00000000    5.00000000     
ITEM: ATOMS id type q x y z mux muy muz
      1   1    1.0000       0.101040       1.217107       2.707414       0.828013      -0.384684       0.407937
      2   2   -1.0000      -2.059307       2.643356       1.906776      -0.681910      -0.683365      -0.260789
      3   1    1.0000       0.029724       3.782277       1.185244      -0.983484      -0.102960      -0.148856
      4   2   -1.0000      -2.277592      -0.042671       1.396111      -0.823531       0.260960      -0.503684
      5   2   -1.0000      -4.689365       4.916864      -4.334983      -0.141471       0.123099      -0.982259
ITEM: TIMESTEP
2700
ITEM: NUMBER OF ATOMS
5
ITEM: BOX BOUNDS ff ff ff
-5.00000000    5.00000000     
-5.00000000    5.00000000     
-5.00000000    5.00000000     
ITEM: ATOMS id type q x y z mux muy muz
      1   1    1.0000       0.061763       1.203910       2.703112       0.892342      -0.414740       0.178089
      2   2   -1.0000      -1.974606       2.641710       1.904396      -0.663883      -0.711904      -0.229023
      3   1    1.0000      -0.020341       3.773006       1.165675      -0.972095      -0.117098      -0.203273
      4   2   -1.0000      -2.250418      -0.029330       1.439684      -0.794664       0.332919      -0.507616
      5   2   -1.0000      -4.666627       4.927637      -4.352305      -0.148081       0.073917      -0.986209
ITEM: TIMESTEP
2800
ITEM: NUMBER OF ATOMS
5
ITEM: BOX BOUNDS ff ff ff
-5.00000000    5.00000000     
-5.00000000    5.00000000     
-5.00000000    5.00000000     
ITEM: ATOMS id type q x y z mux muy muz
      1   1    1.0000       0.022991       1.190980       2.698703       0.898977      -0.432037      -0.072003
      2   2   -1.0000      -1.888817       2.643120       1.899533      -0.649900      -0.736888      -0.186080
      3   1    1.0000      -0.072883       3.761522       1.149601      -0.962877      -0.134285      -0.234170
      4   2   -1.0000      -2.223372      -0.016686       1.481630      -0.768877       0.389108      -0.507369
      5   2   -1.0000      -4.644762       4.937997      -4.368907      -0.153828       0.032313      -0.987569
ITEM: TIMESTEP
2900
ITEM: NUMBER OF ATOMS
5
ITEM: BOX BOUNDS ff ff ff
-5.00000000    5.00000000     
-5.00000000    5.00000000     
-5.00000000    5.00000000     
ITEM: ATOMS id type q x y z mux muy muz
      1   1    1.0000      -0.015367       1.178263       2.694433       0.840990      -0.432020      -0.325721
      2   2   -1.0000      -1.802074       2.647701       1.891540      -0.640437      -0.756559      -0.132136
      3   1    1.0000      -0.127822       3.747706       1.137607      -0.958023      -0.153919      -0.241868
      4   2   -1.0000      -2.196403      -0.004625       1.521687      -0.748935       0.430082      -0.504109
      5   2   -1.0000      -4.623865       4.947889      -4.384706      -0.158805      -0.001729      -0.987308
ITEM: TIMESTEP
3000
ITEM: NUMBER OF ATOMS
5
ITEM: BOX BOUNDS ff ff ff
-5.00000000    5.00000000     
-5.00000000    5.00000000     
-5.00000000    5.00000000     
ITEM: ATOMS id type q x y z mux muy muz
      1   1    1.0000      -0.053372       1.165748       2.690522       0.716980      -0.411349      -0.562789
      2   2   -1.0000      -1.714570       2.655568       1.879716      -0.635760      -0.768903      -0.067801
      3   1    1.0000      -0.185055       3.731348       1.130375      -0.957774      -0.175776      -0.227532
      4   2   -1.0000      -2.169486       0.007030       1.559545      -0.736518       0.456851      -0.498827
      5   2   -1.0000      -4.604064       4.957240      -4.399598      -0.163127      -0.028852      -0.986183
ITEM: TIMESTEP
3100
ITEM: NUMBER OF ATOMS
5
ITEM: BOX BOUNDS ff ff ff
-5.00000000    5.00000000     
-5.00000000    5.00000000     
-5.00000000    5.00000000     
ITEM: ATOMS id type q x y z mux muy muz
      1   1    1.0000      -0.090976       1.153469       2.687110       0.532772      -0.368916      -0.761613
      2   2   -1.0000      -1.626604       2.666925       1.863314      -0.635903      -0.771746       0.005932
      3   1    1.0000      -0.244458       3.712056       1.128724      -0.960683      -0.200239      -0.192336
      4   2   -1.0000      -2.142644       0.018518       1.594865      -0.732394       0.470334      -0.492325
      5   2   -1.0000      -4.585525       4.965966      -4.413451      -0.166905      -0.050064      -0.984701
ITEM: TIMESTEP
3200
ITEM: NUMBER OF ATOMS
5
ITEM: BOX BOUNDS ff ff ff
-5.00000000    5.00000000     
-5.00000000    5.00000000     
-5.00000000    5.00000000     
ITEM: ATOMS id type q x y z mux muy muz
      1   1    1.0000      -0.127919       1.141471       2.684214       0.302046      -0.306692      -0.902612
      2   2   -1.0000      -1.538626       2.682245       1.841515      -0.640438      -0.762994       0.087633
      3   1    1.0000      -0.305905       3.689121       1.133659      -0.963862      -0.228524      -0.136922
      4   2   -1.0000      -2.115986       0.030131       1.627288      -0.736671       0.470974      -0.485283
      5   2   -1.0000      -4.568451       4.973967      -4.426116      -0.170227      -0.066472      -0.983160
ITEM: TIMESTEP
3300
ITEM: NUMBER OF ATOMS
5
ITEM: BOX BOUNDS ff ff ff
-5.00000000    5.00000000     
-5.00000000    5.00000000     
-5.00000000    5.00000000     
ITEM: ATOMS id type q x y z mux muy muz
      1   1    1.0000      -0.163612       1.129753       2.681710       0.045260      -0.230094      -0.972115
      2   2   -1.0000      -1.451298       2.702606       1.813394      -0.648014      -0.741174       0.175328
      3   1    1.0000      -0.369275       3.661286       1.146426      -0.962868      -0.262932      -0.061249
      4   2   -1.0000      -2.089772       0.042162       1.656441      -0.748934       0.458586      -0.478328
      5   2   -1.0000      -4.553092       4.981127      -4.437410      -0.173157      -0.079108      -0.981712
ITEM: TIMESTEP
3400
ITEM: NUMBER OF ATOMS
5
ITEM: BOX BOUNDS ff ff ff
-5.00000000    5.00000000     
-5.00000000    5.00000000     
-5.00000000    5.00000000     
ITEM: ATOMS id type q x y z mux muy muz
      1   1    1.0000      -0.197024       1.118226       2.679354      -0.213512      -0.147554      -0.965733
      2   2   -1.0000      -1.365518       2.730224       1.777879      -0.655726      -0.706468       0.266319
      3   1    1.0000      -0.434447       3.626379       1.168546      -0.951022      -0.307134       0.035015
      4   2   -1.0000      -2.064518       0.054804       1.681897      -0.768226       0.432408      -0.472073
      5   2   -1.0000      -4.539767       4.987301      -4.447114      -0.175723      -0.088843      -0.980423
ITEM: TIMESTEP
3500
ITEM: NUMBER OF ATOMS
5
ITEM: BOX BOUNDS ff ff ff
-5.00000000    5.00000000     
-5.00000000    5.00000000     
-5.00000000    5.00000000     
ITEM: ATOMS id type q x y z mux muy muz
      1   1    1.0000      -0.226597       1.106763       2.676868      -0.451215      -0.069290      -0.889721
      2   2   -1.0000      -1.282217       2.769296       1.733761      -0.658608      -0.662548       0.356744
      3   1    1.0000      -0.501447       3.580612       1.201768      -0.918108      -0.366405       0.151079
      4   2   -1.0000      -2.041161       0.067956       1.703114      -0.792904       0.391335      -0.467077
      5   2   -1.0000      -4.528892       4.992307      -4.454949      -0.177926      -0.096369      -0.979314
ITEM: TIMESTEP
3600
ITEM: NUMBER OF ATOMS
5
ITEM: BOX BOUNDS ff ff ff
-5.00000000    5.00000000     
-5.00000000    5.00000000     
-5.00000000    5.00000000     
ITEM: ATOMS id type q x y z mux muy muz
      1   1    1.0000      -0.250313       1.095443       2.674107      -0.650364      -0.005628      -0.759602
      2   2   -1.0000      -1.201981       2.826630       1.680379      -0.649888      -0.619713       0.440001
      3   1    1.0000      -0.570594       3.517993       1.247275      -0.848913      -0.447498       0.281235
      4   2   -1.0000      -2.021220       0.080933       1.719399      -0.820456       0.334352      -0.463747
      5   2   -1.0000      -4.520957       4.995936      -4.460599      -0.179741      -0.102211      -0.978390
ITEM: TIMESTEP
3700
ITEM: NUMBER OF ATOMS
5
ITEM: BOX BOUNDS ff ff ff
-5.00000000    5.00000000     
-5.00000000    5.00000000     
-5.00000000    5.00000000     
ITEM: ATOMS id type q x y z mux muy muz
      1   1    1.0000      -0.268064       1.084036       2.671012      -0.801908       0.034706      -0.596438
      2   2   -1.0000      -1.197897       2.825613       1.671019      -0.626261      -0.597140       0.501219
      3   1    1.0000      -0.568303       3.515634       1.251443      -0.728466      -0.553157       0.404171
      4   2   -1.0000      -2.005032       0.093341       1.731360      -0.847428       0.261248      -0.462185
      5   2   -1.0000      -4.515736       4.998311      -4.464274      -0.181128      -0.106758      -0.977648
ITEM: TIMESTEP
3800
ITEM: NUMBER OF ATOMS
5
ITEM: BOX BOUNDS ff ff ff
-5.00000000    5.00000000     
-5.00000000    5.00000000     
-5.00000000    5.00000000     
ITEM: ATOMS id type q x y z mux muy muz
      1   1    1.0000      -0.289020       1.066799       2.665823      -0.908255       0.048132      -0.415639
      2   2   -1.0000      -1.242614       2.782942       1.694110      -0.607877      -0.595528       0.525197
      3   1    1.0000      -0.518192       3.555334       1.222998      -0.581267      -0.653696       0.484572
      4   2   -1.0000      -1.984577       0.111151       1.745594      -0.870108       0.171620      -0.462015
      5   2   -1.0000      -4.510453       4.999291      -4.467964      -0.182132      -0.110426      -0.977054
ITEM: TIMESTEP
3900
ITEM: NUMBER OF ATOMS
5
ITEM: BOX BOUNDS ff ff ff
-5.00000000    5.00000000     
-5.00000000    5.00000000     
-5.00000000    5.00000000     
ITEM: ATOMS id type q x y z mux muy muz