ITEM: TIMESTEP
0
ITEM: NUMBER OF ATOMS
5
ITEM: BOX BOUNDS ff ff ff
-5.00000000    5.00000000     
-5.00000000    5.00000000     
-5.00000000    5.00000000     
ITEM: ATOMS id type q x y z mux muy muz
      1   1    1.0000       0.599116       2.896205       2.387693       0.234745       0.956619       0.172556
      2   2   -1.0000       1.251581       4.863684       0.336362      -0.312340      -0.860348      -0.402796
      3   1    1.0000      -3.868808       3.283077      -2.481279       0.155189       0.987750      -0.016287
      4   2   -1.0000       2.773255       4.571436       1.967618       0.500974       0.025995      -0.865072
      5   2   -1.0000       0.960183      -0.396176      -1.355859      -0.229315       0.819141       0.525759
ITEM: TIMESTEP
100
ITEM: NUMBER OF ATOMS
5
ITEM: BOX BOUNDS ff ff ff
-5.00000000    5.00000000     
-5.00000000    5.00000000     
-5.00000000    5.00000000     
ITEM: ATOMS id type q x y z mux muy muz
      1   1    1.0000       0.629151       2.844514       2.351605       0.226213       0.966100       0.124410
      2   2   -1.0000       1.197629       4.849701       0.382084      -0.334447      -0.878777      -0.340436
      3   1    1.0000      -3.855225       3.317169      -2.462512       0.172568       0.984709      -0.023852
      4   2   -1.0000       2.795490       4.606790       1.935007       0.484292       0.036775      -0.874133
      5   2   -1.0000       0.948282      -0.399949      -1.351648      -0.491195       0.722390       0.486704
ITEM: TIMESTEP
200
ITEM: NUMBER OF ATOMS
5
ITEM: BOX BOUNDS ff ff ff
-5.00000000    5.00000000     
-5.00000000    5.00000000     
-5.00000000    5.00000000     
ITEM: ATOMS id type q x y z mux muy muz
      1   1    1.0000       0.662751       2.794833       2.314357       0.230011       0.970436       0.073138
      2   2   -1.0000       1.141695       4.835044       0.426883      -0.345395      -0.893787      -0.286091
      3   1    1.0000      -3.841134       3.351783      -2.443367       0.191541       0.981013      -0.030415
      4   2   -1.0000       2.815981       4.640354       1.904085       0.458408       0.064610      -0.886390
      5   2   -1.0000       0.936034      -0.403787      -1.347423      -0.718549       0.563585       0.407505
ITEM: TIMESTEP
300
ITEM: NUMBER OF ATOMS
5
ITEM: BOX BOUNDS ff ff ff
-5.00000000    5.00000000     
-5.00000000    5.00000000     
-5.00000000    5.00000000     
ITEM: ATOMS id type q x y z mux muy muz
      1   1    1.0000       0.699754       2.747282       2.276171       0.244816       0.969338       0.021176
      2   2   -1.0000       1.083792       4.819745       0.470573      -0.346813      -0.906813      -0.239604
      3   1    1.0000      -3.826550       3.386867      -2.423873       0.211649       0.976685      -0.035929
      4   2   -1.0000       2.834882       4.672028       1.874856       0.423338       0.106822      -0.899652
      5   2   -1.0000       0.923450      -0.407696      -1.343192      -0.887553       0.354927       0.293727
ITEM: TIMESTEP
400
ITEM: NUMBER OF ATOMS
5
ITEM: BOX BOUNDS ff ff ff
-5.00000000    5.00000000     
-5.00000000    5.00000000     
-5.00000000    5.00000000     
ITEM: ATOMS id type q x y z mux muy muz
      1   1    1.0000       0.739997       2.701957       2.237261       0.268966       0.962696      -0.029552
      2   2   -1.0000       1.023967       4.803857       0.513016      -0.340237      -0.918702      -0.200565
      3   1    1.0000      -3.811487       3.422365      -2.404060       0.232578       0.971740      -0.040357
      4   2   -1.0000       2.852313       4.701720       1.847278       0.379319       0.160341      -0.911267
      5   2   -1.0000       0.910537      -0.411673      -1.338960      -0.981212       0.114685       0.155147
ITEM: TIMESTEP
500
ITEM: NUMBER OF ATOMS
5
ITEM: BOX BOUNDS ff ff ff
-5.00000000    5.00000000     
-5.00000000    5.00000000     
-5.00000000    5.00000000     
ITEM: ATOMS id type q x y z mux muy muz
      1   1    1.0000       0.783314       2.658935       2.197839       0.300648       0.950570      -0.077633
      2   2   -1.0000       0.962301       4.787442       0.554111      -0.327079      -0.929855      -0.168493
      3   1    1.0000      -3.795959       3.458207      -2.383955       0.254147       0.966180      -0.043657
      4   2   -1.0000       2.868369       4.729344       1.821271       0.326957       0.221981      -0.918599
      5   2   -1.0000       0.897303      -0.415702      -1.334731      -0.990730      -0.135784       0.004039
ITEM: TIMESTEP
600
ITEM: NUMBER OF ATOMS
5
ITEM: BOX BOUNDS ff ff ff
-5.00000000    5.00000000     
-5.00000000    5.00000000     
-5.00000000    5.00000000     
ITEM: ATOMS id type q x y z mux muy muz
      1   1    1.0000       0.829532       2.618263       2.158097       0.338007       0.933188      -0.122113
      2   2   -1.0000       0.898900       4.770576       0.593803      -0.308662      -0.940375      -0.142910
      3   1    1.0000      -3.779981       3.494318      -2.363584       0.276284       0.959985      -0.045782
      4   2   -1.0000       2.883123       4.754825       1.796726       0.267284       0.288640      -0.919373
      5   2   -1.0000       0.883754      -0.419756      -1.330506      -0.915546      -0.374623      -0.146399
ITEM: TIMESTEP
700
ITEM: NUMBER OF ATOMS
5
ITEM: BOX BOUNDS ff ff ff
-5.00000000    5.00000000     
-5.00000000    5.00000000     
-5.00000000    5.00000000     
ITEM: ATOMS id type q x y z mux muy muz
      1   1    1.0000       0.878466       2.579968       2.118207       0.379231       0.910937      -0.162414
      2   2   -1.0000       0.833888       4.753339       0.632068      -0.286246      -0.950185      -0.123334
      3   1    1.0000      -3.763567       3.530618      -2.342971       0.298993       0.953113      -0.046676
      4   2   -1.0000       2.896635       4.778098       1.773509       0.201724       0.357462      -0.911882
      5   2   -1.0000       0.869905      -0.423796      -1.326278      -0.762605      -0.581510      -0.283336
ITEM: TIMESTEP
800
ITEM: NUMBER OF ATOMS
5
ITEM: BOX BOUNDS ff ff ff
-5.00000000    5.00000000     
-5.00000000    5.00000000     
-5.00000000    5.00000000     
ITEM: ATOMS id type q x y z mux muy muz
      1   1    1.0000       0.929926       2.544059       2.078319       0.422610       0.884364      -0.198245
      2   2   -1.0000       0.767401       4.735808       0.668917      -0.261046      -0.959124      -0.109249
      3   1    1.0000      -3.746732       3.567025      -2.322135       0.322325       0.945497      -0.046280
      4   2   -1.0000       2.908955       4.799111       1.751474       0.131986       0.425970      -0.895058
      5   2   -1.0000       0.855777      -0.427776      -1.322041      -0.545262      -0.739193      -0.395326
ITEM: TIMESTEP
900
ITEM: NUMBER OF ATOMS
5
ITEM: BOX BOUNDS ff ff ff
-5.00000000    5.00000000     
-5.00000000    5.00000000     
-5.00000000    5.00000000     
ITEM: ATOMS id type q x y z mux muy muz
      1   1    1.0000       0.983718       2.510536       2.038555       0.466580       0.854181      -0.229516
      2   2   -1.0000       0.699579       4.718052       0.704391      -0.234218      -0.967019      -0.100079
      3   1    1.0000      -3.729490       3.603459      -2.301095       0.346358       0.937045      -0.044538
      4   2   -1.0000       2.920121       4.817824       1.730468       0.059925       0.492138      -0.868452
      5   2   -1.0000       0.841400      -0.431645      -1.317784      -0.281971      -0.834661      -0.473110
ITEM: TIMESTEP
1000
ITEM: NUMBER OF ATOMS
5
ITEM: BOX BOUNDS ff ff ff
-5.00000000    5.00000000     
-5.00000000    5.00000000     
-5.00000000    5.00000000     
ITEM: ATOMS id type q x y z mux muy muz
      1   1    1.0000       1.039644       2.479399       1.999012       0.509774       0.821257      -0.256258
      2   2   -1.0000       0.630563       4.700127       0.738550      -0.206834      -0.973737      -0.095164
      3   1    1.0000      -3.711857       3.639846      -2.279863       0.371168       0.927642      -0.041404
      4   2   -1.0000       2.930167       4.834208       1.710337      -0.012594       0.554423      -0.832140
      5   2   -1.0000       0.826812      -0.435354      -1.313500       0.005207      -0.860006      -0.510258
ITEM: TIMESTEP
1100
ITEM: NUMBER OF ATOMS
5
ITEM: BOX BOUNDS ff ff ff
-5.00000000    5.00000000     
-5.00000000    5.00000000     
-5.00000000    5.00000000     
ITEM: ATOMS id type q x y z mux muy muz
      1   1    1.0000       1.097512       2.450654       1.959763       0.551045       0.786611      -0.278554
      2   2   -1.0000       0.560490       4.682072       0.771476      -0.179843      -0.979217      -0.093763
      3   1    1.0000      -3.693848       3.676120      -2.258451       0.396814       0.917159      -0.036842
      4   2   -1.0000       2.939116       4.848243       1.690934      -0.083794       0.611740      -0.786608
      5   2   -1.0000       0.812059      -0.438863      -1.309186       0.292271      -0.812984      -0.503621
ITEM: TIMESTEP
1200
ITEM: NUMBER OF ATOMS
5
ITEM: BOX BOUNDS ff ff ff
-5.00000000    5.00000000     
-5.00000000    5.00000000     
-5.00000000    5.00000000     
ITEM: ATOMS id type q x y z mux muy muz
      1   1    1.0000       1.157137       2.424324       1.920865       0.589494       0.751393      -0.296489
      2   2   -1.0000       0.489493       4.663909       0.803260      -0.154027      -0.983482      -0.095071
      3   1    1.0000      -3.675478       3.712222      -2.236865       0.423317       0.905457      -0.030829
      4   2   -1.0000       2.946986       4.859911       1.672119      -0.152049       0.663403      -0.732651
      5   2   -1.0000       0.797190      -0.442140      -1.304843       0.555094      -0.697224      -0.453597
ITEM: TIMESTEP
1300
ITEM: NUMBER OF ATOMS
5
ITEM: BOX BOUNDS ff ff ff
-5.00000000    5.00000000     
-5.00000000    5.00000000     
-5.00000000    5.00000000     
ITEM: ATOMS id type q x y z mux muy muz
      1   1    1.0000       1.218348       2.400448       1.882360       0.624467       0.716845      -0.310119
      2   2   -1.0000       0.417700       4.645644       0.833999      -0.129975      -0.986638      -0.098243
      3   1    1.0000      -3.656760       3.748109      -2.215109       0.450647       0.892397      -0.023364
      4   2   -1.0000       2.953786       4.869195       1.653766      -0.215914       0.709055      -0.671284
      5   2   -1.0000       0.782254      -0.445170      -1.300481       0.771292      -0.522026      -0.364140
ITEM: TIMESTEP
1400
ITEM: NUMBER OF ATOMS
5
ITEM: BOX BOUNDS ff ff ff
-5.00000000    5.00000000     
-5.00000000    5.00000000     
-5.00000000    5.00000000     
ITEM: ATOMS id type q x y z mux muy muz
      1   1    1.0000       1.280990       2.379083       1.844282       0.655551       0.684254      -0.319452
      2   2   -1.0000       0.345233       4.627272       0.863789      -0.108057      -0.988853      -0.102437
      3   1    1.0000      -3.637709       3.783744      -2.193184       0.478708       0.877855      -0.014464
      4   2   -1.0000       2.959521       4.876077       1.635765      -0.274127       0.748602      -0.603697
      5   2   -1.0000       0.767292      -0.447950      -1.296116       0.922025      -0.301745      -0.242527
ITEM: TIMESTEP
1500
ITEM: NUMBER OF ATOMS
5
ITEM: BOX BOUNDS ff ff ff
-5.00000000    5.00000000     
-5.00000000    5.00000000     
-5.00000000    5.00000000     
ITEM: ATOMS id type q x y z mux muy muz
      1   1    1.0000       1.344928       2.360304       1.806659       0.682540       0.654878      -0.324460
      2   2   -1.0000       0.272213       4.608782       0.892715      -0.088423      -0.990336      -0.106843
      3   1    1.0000      -3.618340       3.819102      -2.171094       0.507336       0.861738      -0.004171
      4   2   -1.0000       2.964185       4.880531       1.618022      -0.325615       0.782161      -0.531224
      5   2   -1.0000       0.752342      -0.450493      -1.291768       0.993593      -0.054781      -0.098857
ITEM: TIMESTEP
1600
ITEM: NUMBER OF ATOMS
5
ITEM: BOX BOUNDS ff ff ff
-5.00000000    5.00000000     
-5.00000000    5.00000000     
-5.00000000    5.00000000     
ITEM: ATOMS id type q x y z mux muy muz
      1   1    1.0000       1.410042       2.344194       1.769516       0.705386       0.629872      -0.325104
      2   2   -1.0000       0.198760       4.590162       0.920850      -0.071014      -0.991311      -0.110722
      3   1    1.0000      -3.598667       3.854164      -2.148838       0.536297       0.843996       0.007452
      4   2   -1.0000       2.967766       4.882525       1.600464      -0.369502       0.810028      -0.455328
      5   2   -1.0000       0.737426      -0.452818      -1.287457       0.978718       0.197792       0.054679
ITEM: TIMESTEP
1700
ITEM: NUMBER OF ATOMS
5
ITEM: BOX BOUNDS ff ff ff
-5.00000000    5.00000000     
-5.00000000    5.00000000     
-5.00000000    5.00000000     
ITEM: ATOMS id type q x y z mux muy muz
      1   1    1.0000       1.476228       2.330841       1.732873       0.724144       0.610189      -0.321380
      2   2   -1.0000       0.124996       4.571403       0.948251      -0.055585      -0.991990      -0.113427
      3   1    1.0000      -3.578708       3.888915      -2.126421       0.565296       0.824638       0.020314
      4   2   -1.0000       2.970250       4.882018       1.583035      -0.405128       0.832653      -0.377573
      5   2   -1.0000       0.722562      -0.454950      -1.283202       0.877411       0.433864       0.204725
ITEM: TIMESTEP
1800
ITEM: NUMBER OF ATOMS
5
ITEM: BOX BOUNDS ff ff ff
-5.00000000    5.00000000     
-5.00000000    5.00000000     
-5.00000000    5.00000000     
ITEM: ATOMS id type q x y z mux muy muz
      1   1    1.0000       1.543392       2.320333       1.696742       0.738907       0.596504      -0.313369
      2   2   -1.0000       0.051043       4.552506       0.974954      -0.041740      -0.992554      -0.114428
      3   1    1.0000      -3.558479       3.923342      -2.103847       0.593996       0.803736       0.034309
      4   2   -1.0000       2.971616       4.878959       1.565702      -0.432073       0.850628      -0.299575
      5   2   -1.0000       0.707756      -0.456915      -1.279015       0.697315       0.632142       0.337859
ITEM: TIMESTEP
1900
ITEM: NUMBER OF ATOMS
5
ITEM: BOX BOUNDS ff ff ff
-5.00000000    5.00000000     
-5.00000000    5.00000000     
-5.00000000    5.00000000     
ITEM: ATOMS id type q x y z mux muy muz
      1   1    1.0000       1.611440       2.312752       1.661130       0.749748       0.589145      -0.301306
      2   2   -1.0000      -0.022973       4.533484       1.000978      -0.028974      -0.993137      -0.113312
      3   1    1.0000      -3.537997       3.957432      -2.081125       0.622049       0.781424       0.049319
      4   2   -1.0000       2.971843       4.873291       1.548451      -0.450180       0.864661      -0.222935
      5   2   -1.0000       0.693016      -0.458732      -1.274900       0.453418       0.774104       0.441787
ITEM: TIMESTEP
2000
ITEM: NUMBER OF ATOMS
5
ITEM: BOX BOUNDS ff ff ff
-5.00000000    5.00000000     
-5.00000000    5.00000000     
-5.00000000    5.00000000     
ITEM: ATOMS id type q x y z mux muy muz
      1   1    1.0000       1.680276       2.308174       1.626031       0.756691       0.588081      -0.285622
      2   2   -1.0000      -0.096926       4.514357       1.026325      -0.016713      -0.993814      -0.109790
      3   1    1.0000      -3.517281       3.991168      -2.058261       0.649121       0.757883       0.065228
      4   2   -1.0000       2.970909       4.864943       1.531289      -0.459546       0.875540      -0.149153
      5   2   -1.0000       0.678348      -0.460416      -1.270849       0.167047       0.845873       0.506551
ITEM: TIMESTEP
2100
ITEM: NUMBER OF ATOMS
5
ITEM: BOX BOUNDS ff ff ff
-5.00000000    5.00000000     
-5.00000000    5.00000000     
-5.00000000    5.00000000     
ITEM: ATOMS id type q x y z mux muy muz
      1   1    1.0000       1.749795       2.306669       1.591432       0.759698       0.592945      -0.266975
      2   2   -1.0000      -0.170689       4.495162       1.050982      -0.004361      -0.994601      -0.103682
      3   1    1.0000      -3.496344       4.024532      -2.035265       0.674929       0.733319       0.081938
      4   2   -1.0000       2.968799       4.853836       1.514236      -0.460505       0.884085      -0.079553
      5   2   -1.0000       0.663767      -0.461973      -1.266851      -0.135887       0.839798       0.525618
ITEM: TIMESTEP
2200
ITEM: NUMBER OF ATOMS
5
ITEM: BOX BOUNDS ff ff ff
-5.00000000    5.00000000     
-5.00000000    5.00000000     
-5.00000000    5.00000000     
ITEM: ATOMS id type q x y z mux muy muz
      1   1    1.0000       1.819877       2.308311       1.557313       0.758686       0.603125      -0.246243
      2   2   -1.0000      -0.244141       4.475944       1.074924       0.008669      -0.995449      -0.094901
      3   1    1.0000      -3.475202       4.057497      -2.012143       0.699257       0.707929       0.099379
      4   2   -1.0000       2.965499       4.839876       1.497329      -0.453576       0.891088      -0.015224
      5   2   -1.0000       0.649295      -0.463402      -1.262889      -0.427277       0.755483       0.496669
ITEM: TIMESTEP
2300
ITEM: NUMBER OF ATOMS
5
ITEM: BOX BOUNDS ff ff ff
-5.00000000    5.00000000     
-5.00000000    5.00000000     
-5.00000000    5.00000000     
ITEM: ATOMS id type q x y z mux muy muz
      1   1    1.0000       1.890388       2.313186       1.523656       0.753546       0.617886      -0.224468
      2   2   -1.0000      -0.317162       4.456757       1.098118       0.022913      -0.996250      -0.083431
      3   1    1.0000      -3.453866       4.090032      -1.988900       0.721965       0.681877       0.117517
      4   2   -1.0000       2.961002       4.822951       1.480614      -0.439396       0.897264       0.042991
      5   2   -1.0000       0.634965      -0.464699      -1.258952      -0.679586       0.600080       0.421981
ITEM: TIMESTEP
2400
ITEM: NUMBER OF ATOMS
5
ITEM: BOX BOUNDS ff ff ff
-5.00000000    5.00000000     
-5.00000000    5.00000000     
-5.00000000    5.00000000     
ITEM: ATOMS id type q x y z mux muy muz
      1   1    1.0000       1.961179       2.321404       1.490450       0.744155       0.636490      -0.202764
      2   2   -1.0000      -0.389631       4.437665       1.120518       0.038837      -0.996839      -0.069307
      3   1    1.0000      -3.432345       4.122097      -1.965541       0.742985       0.655271       0.136359
      4   2   -1.0000       2.955312       4.802925       1.464144      -0.418669       0.903210       0.094485
      5   2   -1.0000       0.620813      -0.465864      -1.255037      -0.868674       0.387747       0.308314
ITEM: TIMESTEP
2500
ITEM: NUMBER OF ATOMS
5
ITEM: BOX BOUNDS ff ff ff
-5.00000000    5.00000000     
-5.00000000    5.00000000     
-5.00000000    5.00000000     
ITEM: ATOMS id type q x y z mux muy muz
      1   1    1.0000       2.032081       2.333110       1.457701       0.730365       0.658309      -0.182202
      2   2   -1.0000      -0.461425       4.418738       1.142075       0.056810      -0.996998      -0.052602
      3   1    1.0000      -3.410650       4.153640      -1.942067       0.762304       0.628151       0.155945
      4   2   -1.0000       2.948438       4.779633       1.447979      -0.392111       0.909379       0.138845
      5   2   -1.0000       0.606884      -0.466896      -1.251153      -0.976324       0.138336       0.166296
ITEM: TIMESTEP
2600
ITEM: NUMBER OF ATOMS
5
ITEM: BOX BOUNDS ff ff ff
-5.00000000    5.00000000     
-5.00000000    5.00000000     
-5.00000000    5.00000000     
ITEM: ATOMS id type q x y z mux muy muz
      1   1    1.0000       2.102912       2.348502       1.425440       0.711961       0.682876      -0.163680
      2   2   -1.0000      -0.532407       4.400056       1.162724       0.077089      -0.996464      -0.033410
      3   1    1.0000      -3.388798       4.184595      -1.918482       0.779943       0.600494       0.176340
      4   2   -1.0000       2.940401       4.752873       1.432178      -0.360429       0.916069       0.175806
      5   2   -1.0000       0.593219      -0.467800      -1.247324      -0.992167      -0.124569       0.009389
ITEM: TIMESTEP
2700
ITEM: NUMBER OF ATOMS
5
ITEM: BOX BOUNDS ff ff ff
-5.00000000    5.00000000     
-5.00000000    5.00000000     
-5.00000000    5.00000000     
ITEM: ATOMS id type q x y z mux muy muz
      1   1    1.0000       2.173461       2.367831       1.393728       0.688622       0.709894      -0.147818
      2   2   -1.0000      -0.602413       4.381704       1.182393       0.099805      -0.994936      -0.011851
      3   1    1.0000      -3.366814       4.214876      -1.894799       0.795933       0.572220       0.197623
      4   2   -1.0000       2.931236       4.722402       1.416799      -0.324312       0.923424       0.205210
      5   2   -1.0000       0.579858      -0.468587      -1.243585      -0.914793      -0.376039      -0.147475
ITEM: TIMESTEP
2800
ITEM: NUMBER OF ATOMS
5
ITEM: BOX BOUNDS ff ff ff
-5.00000000    5.00000000     
-5.00000000    5.00000000     
-5.00000000    5.00000000     
ITEM: ATOMS id type q x y z mux muy muz
      1   1    1.0000       2.243484       2.391419       1.362667       0.659867       0.739178      -0.134879
      2   2   -1.0000      -0.671246       4.363778       1.200994       0.124952      -0.992091       0.011944
      3   1    1.0000      -3.344739       4.244376      -1.871041       0.810297       0.543210       0.219867
      4   2   -1.0000       2.920988       4.687922       1.401897      -0.284442       0.931437       0.226976
      5   2   -1.0000       0.566840      -0.469269      -1.239982      -0.751901      -0.592354      -0.289415
ITEM: TIMESTEP
2900
ITEM: NUMBER OF ATOMS
5
ITEM: BOX BOUNDS ff ff ff
-5.00000000    5.00000000     
-5.00000000    5.00000000     
-5.00000000    5.00000000     
ITEM: ATOMS id type q x y z mux muy muz
      1   1    1.0000       2.312691       2.419660       1.332404       0.625048       0.770558      -0.124722
      2   2   -1.0000      -0.738650       4.346384       1.218423       0.152386      -0.987597       0.037823
      3   1    1.0000      -3.322640       4.272963      -1.847250       0.823033       0.513327       0.243132
      4   2   -1.0000       2.909726       4.649081       1.387520      -0.241520       0.939968       0.241097
      5   2   -1.0000       0.554200      -0.469860      -1.236562      -0.519453      -0.753426      -0.403135
ITEM: TIMESTEP
3000
ITEM: NUMBER OF ATOMS
5
ITEM: BOX BOUNDS ff ff ff
-5.00000000    5.00000000     
-5.00000000    5.00000000     
-5.00000000    5.00000000     
ITEM: ATOMS id type q x y z mux muy muz
      1   1    1.0000       2.380719       2.453030       1.303146       0.583367       0.803767      -0.116798
      2   2   -1.0000      -0.804300       4.329640       1.234559       0.181830      -0.981138       0.065628
      3   1    1.0000      -3.300616       4.300471      -1.823497       0.834102       0.482435       0.267452
      4   2   -1.0000       2.897541       4.605457       1.373702      -0.196296       0.948758       0.247641
      5   2   -1.0000       0.541983      -0.470372      -1.233374      -0.239914      -0.844812      -0.478262
ITEM: TIMESTEP
3100
ITEM: NUMBER OF ATOMS
5
ITEM: BOX BOUNDS ff ff ff
-5.00000000    5.00000000     
-5.00000000    5.00000000     
-5.00000000    5.00000000     
ITEM: ATOMS id type q x y z mux muy muz
      1   1    1.0000       2.447106       2.492094       1.275169       0.533948       0.838309      -0.110172
      2   2   -1.0000      -0.867774       4.313684       1.249264       0.212893      -0.972427       0.095193
      3   1    1.0000      -3.278807       4.326702      -1.799895       0.843427       0.450424       0.292830
      4   2   -1.0000       2.884559       4.556558       1.360459      -0.149608       0.957454       0.246777
      5   2   -1.0000       0.530243      -0.470811      -1.230462       0.060186      -0.859053      -0.508336
ITEM: TIMESTEP
3200
ITEM: NUMBER OF ATOMS
5
ITEM: BOX BOUNDS ff ff ff
-5.00000000    5.00000000     
-5.00000000    5.00000000     
-5.00000000    5.00000000     
ITEM: ATOMS id type q x y z mux muy muz
      1   1    1.0000       2.511254       2.537518       1.248843       0.475946       0.873356      -0.103562
      2   2   -1.0000      -0.928527       4.298670       1.262383       0.245090      -0.961231       0.126358
      3   1    1.0000      -3.257411       4.351414      -1.776611       0.850891       0.417223       0.319232
      4   2   -1.0000       2.870956       4.501806       1.347780      -0.102440       0.965646       0.238818
      5   2   -1.0000       0.519054      -0.471182      -1.227860       0.353069      -0.796199      -0.491334
ITEM: TIMESTEP
3300
ITEM: NUMBER OF ATOMS
5
ITEM: BOX BOUNDS ff ff ff
-5.00000000    5.00000000     
-5.00000000    5.00000000     
-5.00000000    5.00000000     
ITEM: ATOMS id type q x y z mux muy muz
      1   1    1.0000       2.572381       2.590080       1.224662       0.408698       0.907671      -0.095389
      2   2   -1.0000      -0.985859       4.284780       1.273745       0.277878      -0.947370       0.158976
      3   1    1.0000      -3.236695       4.374319      -1.753887       0.856344       0.382817       0.346592
      4   2   -1.0000       2.856976       4.440528       1.335610      -0.055984       0.972915       0.224282
      5   2   -1.0000       0.508524      -0.471482      -1.225595       0.612515      -0.663476      -0.429681
ITEM: TIMESTEP
3400
ITEM: NUMBER OF ATOMS
5
ITEM: BOX BOUNDS ff ff ff
-5.00000000    5.00000000     
-5.00000000    5.00000000     
-5.00000000    5.00000000     
ITEM: ATOMS id type q x y z mux muy muz
      1   1    1.0000       2.629462       2.650702       1.203282       0.331909       0.939580      -0.083822
      2   2   -1.0000      -1.038881       4.272226       1.283176       0.310688      -0.930729       0.192917
      3   1    1.0000      -3.217017       4.395069      -1.732068       0.859616       0.347246       0.374808
      4   2   -1.0000       2.842963       4.371936       1.323830      -0.011728       0.978906       0.203975
      5   2   -1.0000       0.498800      -0.471707      -1.223686       0.816322      -0.474200      -0.329777
ITEM: TIMESTEP
3500
ITEM: NUMBER OF ATOMS
5
ITEM: BOX BOUNDS ff ff ff
-5.00000000    5.00000000     
-5.00000000    5.00000000     
-5.00000000    5.00000000     
ITEM: ATOMS id type q x y z mux muy muz
      1   1    1.0000       2.681172       2.720508       1.185577       0.245888       0.966993      -0.066805
      2   2   -1.0000      -1.086476       4.261252       1.290512       0.342950      -0.911245       0.228073
      3   1    1.0000      -3.198842       4.413259      -1.711629       0.860525       0.310611       0.403755
      4   2   -1.0000       2.829399       4.295060       1.312218       0.028418       0.983416       0.179122
      5   2   -1.0000       0.490075      -0.471854      -1.222142       0.948133      -0.246143      -0.201143
ITEM: TIMESTEP
3600
ITEM: NUMBER OF ATOMS
5
ITEM: BOX BOUNDS ff ff ff
-5.00000000    5.00000000     
-5.00000000    5.00000000     
-5.00000000    5.00000000     
ITEM: ATOMS id type q x y z mux muy muz
      1   1    1.0000       2.725848       2.801020       1.172702       0.151906       0.987499      -0.042063
      2   2   -1.0000      -1.127302       4.252130       1.295632       0.374121      -0.888906       0.264348
      3   1    1.0000      -3.182755       4.428430      -1.693208       0.858898       0.273058       0.433282
      4   2   -1.0000       2.816942       4.208568       1.300378       0.061940       0.986507       0.151550
      5   2   -1.0000       0.482595      -0.471921      -1.220969       0.998468       0.000413      -0.055334
ITEM: TIMESTEP
3700
ITEM: NUMBER OF ATOMS
5
ITEM: BOX BOUNDS ff ff ff
-5.00000000    5.00000000     
-5.00000000    5.00000000     
-5.00000000    5.00000000     
ITEM: ATOMS id type q x y z mux muy muz
      1   1    1.0000       2.761568       2.894829       1.166166       0.052912       0.998574      -0.007125
      2   2   -1.0000      -1.159867       4.245131       1.298525       0.403695      -0.863734       0.301651
      3   1    1.0000      -3.169446       4.440116      -1.677603       0.854582       0.234773       0.463219
      4   2   -1.0000       2.806439       4.110067       1.287607       0.085426       0.988601       0.123980
      5   2   -1.0000       0.476633      -0.471917      -1.220160       0.964931       0.244621       0.095230
ITEM: TIMESTEP
3800
ITEM: NUMBER OF ATOMS
5
ITEM: BOX BOUNDS ff ff ff
-5.00000000    5.00000000     
-5.00000000    5.00000000     
-5.00000000    5.00000000     
ITEM: ATOMS id type q x y z mux muy muz
      1   1    1.0000       2.786439       3.003380       1.167449      -0.044624       0.998186       0.040419
      2   2   -1.0000      -1.182827       4.240450       1.299395       0.431215      -0.835782       0.339885
      3   1    1.0000      -3.159611       4.447973      -1.665699       0.847453       0.195950       0.493383
      4   2   -1.0000       2.798888       3.998283       1.273084       0.094115       0.990481       0.100451
      5   2   -1.0000       0.472438      -0.471860      -1.219694       0.851632       0.466812       0.238348
ITEM: TIMESTEP
3900
ITEM: NUMBER OF ATOMS
5
ITEM: BOX BOUNDS ff ff ff
-5.00000000    5.00000000     
-5.00000000    5.00000000     
-5.00000000    5.00000000     
ITEM: ATOMS id type q x y z mux muy muz