ITEM: TIMESTEP
0
ITEM: NUMBER OF ATOMS
5
ITEM: BOX BOUNDS ff ff ff
-5.00000000    5.00000000     
-5.00000000    5.00000000     
-5.00000000    5.00000000     
ITEM: ATOMS id type q x y z mux muy muz
      1   1    1.0000      -0.747460      -4.624573      -3.720958       0.203911      -0.838219      -0.505776
      2   2   -1.0000       2.655605      -4.999537      -0.834939       0.191330       0.317788      -0.928657
      3   1    1.0000       0.224911      -4.453396       4.730527      -0.501287       0.854195       0.138063
      4   2   -1.0000      -2.738514      -1.958071      -1.960577       0.388641       0.549040       0.739942
      5   2   -1.0000      -2.696271      -4.985526       2.293927       0.105090       0.033217       0.993908
ITEM: TIMESTEP
100
ITEM: NUMBER OF ATOMS
5
ITEM: BOX BOUNDS ff ff ff
-5.00000000    5.00000000     
-5.00000000    5.00000000     
-5.00000000    5.00000000     
ITEM: ATOMS id type q x y z mux muy muz
      1   1    1.0000      -0.721668      -4.652755      -3.683187       0.366913      -0.733918      -0.571611
      2   2   -1.0000       2.669416      -4.964907      -0.894694       0.014825       0.222745      -0.974764
      3   1    1.0000       0.205812      -4.427517       4.704744      -0.509821       0.852507       0.115387
      4   2   -1.0000      -2.715215      -1.963906      -1.961032       0.383809       0.523427       0.760733
      5   2   -1.0000      -2.740073      -4.988003       2.342150       0.099132       0.027027       0.994707
ITEM: TIMESTEP
200
ITEM: NUMBER OF ATOMS
5
ITEM: BOX BOUNDS ff ff ff
-5.00000000    5.00000000     
-5.00000000    5.00000000     
-5.00000000    5.00000000     
ITEM: ATOMS id type q x y z mux muy muz
      1   1    1.0000      -0.696115      -4.680512      -3.644954       0.522411      -0.591956      -0.613738
      2   2   -1.0000       2.683339      -4.930439      -0.954261      -0.151094       0.126516      -0.980390
      3   1    1.0000       0.186673      -4.401914       4.678405      -0.519211       0.850164       0.087415
      4   2   -1.0000      -2.691971      -1.969742      -1.962017       0.377712       0.496900       0.781296
      5   2   -1.0000      -2.783654      -4.961717       2.390808       0.091100       0.020389       0.995633
ITEM: TIMESTEP
300
ITEM: NUMBER OF ATOMS
5
ITEM: BOX BOUNDS ff ff ff
-5.00000000    5.00000000     
-5.00000000    5.00000000     
-5.00000000    5.00000000     
ITEM: ATOMS id type q x y z mux muy muz
      1   1    1.0000      -0.670839      -4.707898      -3.606284       0.660759      -0.413334      -0.626540
      2   2   -1.0000       2.697356      -4.896122      -1.013638      -0.298823       0.035077      -0.953664
      3   1    1.0000       0.167475      -4.376583       4.651499      -0.529050       0.846805       0.055033
      4   2   -1.0000      -2.668735      -1.975553      -1.963522       0.370245       0.470003       0.801259
      5   2   -1.0000      -2.826986      -4.935630       2.439926       0.080832       0.013280       0.996639
ITEM: TIMESTEP
400
ITEM: NUMBER OF ATOMS
5
ITEM: BOX BOUNDS ff ff ff
-5.00000000    5.00000000     
-5.00000000    5.00000000     
-5.00000000    5.00000000     
ITEM: ATOMS id type q x y z mux muy muz
      1   1    1.0000      -0.645896      -4.734940      -3.567200       0.770255      -0.202645      -0.604684
      2   2   -1.0000       2.711440      -4.861956      -1.072819      -0.424172      -0.047390      -0.904341
      3   1    1.0000       0.148201      -4.351525       4.624021      -0.538936       0.842125       0.019336
      4   2   -1.0000      -2.645446      -1.981331      -1.965539       0.361260       0.443387       0.820305
      5   2   -1.0000      -2.870028      -4.909723       2.489518       0.068235       0.005683       0.997653
ITEM: TIMESTEP
500
ITEM: NUMBER OF ATOMS
5
ITEM: BOX BOUNDS ff ff ff
-5.00000000    5.00000000     
-5.00000000    5.00000000     
-5.00000000    5.00000000     
ITEM: ATOMS id type q x y z mux muy muz
      1   1    1.0000      -0.621352      -4.761643      -3.527718       0.838248       0.030648      -0.544427
      2   2   -1.0000       2.725559      -4.827945      -1.131797      -0.526213      -0.118737      -0.842022
      3   1    1.0000       0.128827      -4.326743       4.595967      -0.548533       0.835924      -0.018487
      4   2   -1.0000      -2.622027      -1.987088      -1.968065       0.350576       0.417758       0.838197
      5   2   -1.0000      -2.912736      -4.883975       2.539593       0.053280      -0.002418       0.998577
ITEM: TIMESTEP
600
ITEM: NUMBER OF ATOMS
5
ITEM: BOX BOUNDS ff ff ff
-5.00000000    5.00000000     
-5.00000000    5.00000000     
-5.00000000    5.00000000     
ITEM: ATOMS id type q x y z mux muy muz
      1   1    1.0000      -0.597280      -4.787981      -3.487846       0.853201       0.271857      -0.445131
      2   2   -1.0000       2.739673      -4.794096      -1.190572      -0.606521      -0.178654      -0.774736
      3   1    1.0000       0.109328      -4.302243       4.567335      -0.557606       0.828125      -0.057306
      4   2   -1.0000      -2.598383      -1.992866      -1.971095       0.337991       0.393814       0.854794
      5   2   -1.0000      -2.955066      -4.858365       2.590159       0.035978      -0.011043       0.999292
ITEM: TIMESTEP
700
ITEM: NUMBER OF ATOMS
5
ITEM: BOX BOUNDS ff ff ff
-5.00000000    5.00000000     
-5.00000000    5.00000000     
-5.00000000    5.00000000     
ITEM: ATOMS id type q x y z mux muy muz
      1   1    1.0000      -0.573759      -4.813899      -3.447590       0.807187       0.502060      -0.310458
      2   2   -1.0000       2.753740      -4.760417      -1.249143      -0.668106      -0.228140      -0.708227
      3   1    1.0000       0.089672      -4.278029       4.538118      -0.566043       0.818745      -0.096190
      4   2   -1.0000      -2.574413      -1.998732      -1.974623       0.323298       0.372188       0.870031
      5   2   -1.0000      -2.996968      -4.832867       2.641219       0.016353      -0.020216       0.999662
ITEM: TIMESTEP
800
ITEM: NUMBER OF ATOMS
5
ITEM: BOX BOUNDS ff ff ff
-5.00000000    5.00000000     
-5.00000000    5.00000000     
-5.00000000    5.00000000     
ITEM: ATOMS id type q x y z mux muy muz
      1   1    1.0000      -0.550866      -4.839315      -3.406955       0.698089       0.700385      -0.148767
      2   2   -1.0000       2.767717      -4.726915      -1.307513      -0.714426      -0.268883      -0.645985
      3   1    1.0000       0.069825      -4.254106       4.508313      -0.573835       0.807854      -0.134479
      4   2   -1.0000      -2.550010      -2.004782      -1.978638       0.306311       0.353425       0.883892
      5   2   -1.0000      -3.038395      -4.807454       2.692774      -0.005601      -0.029973       0.999535
ITEM: TIMESTEP
900
ITEM: NUMBER OF ATOMS
5
ITEM: BOX BOUNDS ff ff ff
-5.00000000    5.00000000     
-5.00000000    5.00000000     
-5.00000000    5.00000000     
ITEM: ATOMS id type q x y z mux muy muz
      1   1    1.0000      -0.528672      -4.864121      -3.365953       0.530825       0.847037       0.027461
      2   2   -1.0000       2.781568      -4.693598      -1.365680      -0.748723      -0.302728      -0.589720
      3   1    1.0000       0.049746      -4.230479       4.477912      -0.581051       0.795530      -0.171789
      4   2   -1.0000      -2.525074      -2.011136      -1.983121       0.286898       0.337975       0.896361
      5   2   -1.0000      -3.079297      -4.782102       2.744823      -0.029929      -0.040347       0.998737
ITEM: TIMESTEP
1000
ITEM: NUMBER OF ATOMS
5
ITEM: BOX BOUNDS ff ff ff
-5.00000000    5.00000000     
-5.00000000    5.00000000     
-5.00000000    5.00000000     
ITEM: ATOMS id type q x y z mux muy muz
      1   1    1.0000      -0.507235      -4.888193      -3.324606       0.317289       0.926334       0.203058
      2   2   -1.0000       2.795259      -4.660471      -1.423645      -0.773711      -0.331345      -0.539984
      3   1    1.0000       0.029392      -4.207152       4.446909      -0.587799       0.781822      -0.207956
      4   2   -1.0000      -2.499521      -2.017927      -1.988044       0.265011       0.326203       0.907392
      5   2   -1.0000      -3.119624      -4.756784       2.797366      -0.056723      -0.051370       0.997067
ITEM: TIMESTEP
1100
ITEM: NUMBER OF ATOMS
5
ITEM: BOX BOUNDS ff ff ff
-5.00000000    5.00000000     
-5.00000000    5.00000000     
-5.00000000    5.00000000     
ITEM: ATOMS id type q x y z mux muy muz
      1   1    1.0000      -0.486592      -4.911399      -3.282941       0.075061       0.929105       0.362117
      2   2   -1.0000       2.808770      -4.627536      -1.481402      -0.791525      -0.356060      -0.496699
      3   1    1.0000       0.008711      -4.184126       4.415292      -0.594202       0.766741      -0.242964
      4   2   -1.0000      -2.473292      -2.025297      -1.993371       0.240722       0.318380       0.916890
      5   2   -1.0000      -3.159326      -4.731476       2.850403      -0.086105      -0.063059       0.994288
ITEM: TIMESTEP
1200
ITEM: NUMBER OF ATOMS
5
ITEM: BOX BOUNDS ff ff ff
-5.00000000    5.00000000     
-5.00000000    5.00000000     
-5.00000000    5.00000000     
ITEM: ATOMS id type q x y z mux muy muz
      1   1    1.0000      -0.466761      -4.933612      -3.240999      -0.174798       0.853994       0.490040
      2   2   -1.0000       2.822089      -4.594795      -1.538947      -0.803804      -0.377815      -0.459516
      3   1    1.0000      -0.012352      -4.161404       4.383050      -0.600380       0.750257      -0.276873
      4   2   -1.0000      -2.446357      -2.033380      -1.999059       0.214243       0.314673       0.924706
      5   2   -1.0000      -3.198347      -4.706158       2.903936      -0.118206      -0.075410       0.990122
ITEM: TIMESTEP
1300
ITEM: NUMBER OF ATOMS
5
ITEM: BOX BOUNDS ff ff ff
-5.00000000    5.00000000     
-5.00000000    5.00000000     
-5.00000000    5.00000000     
ITEM: ATOMS id type q x y z mux muy muz
      1   1    1.0000      -0.447732      -4.954718      -3.198827      -0.410382       0.707538       0.575305
      2   2   -1.0000       2.835218      -4.562249      -1.596269      -0.811816      -0.397192      -0.428011
      3   1    1.0000      -0.033859      -4.138986       4.350172      -0.606445       0.732305      -0.309764
      4   2   -1.0000      -2.418724      -2.042294      -2.005064       0.185942       0.315129       0.930655
      5   2   -1.0000      -3.236632      -4.680811       2.957968      -0.153138      -0.088390       0.984244
ITEM: TIMESTEP
1400
ITEM: NUMBER OF ATOMS
5
ITEM: BOX BOUNDS ff ff ff
-5.00000000    5.00000000     
-5.00000000    5.00000000     
-5.00000000    5.00000000     
ITEM: ATOMS id type q x y z mux muy muz
      1   1    1.0000      -0.429467      -4.974628      -3.156474      -0.611497       0.503136       0.610676
      2   2   -1.0000       2.848165      -4.529901      -1.653357      -0.816578      -0.414464      -0.401771
      3   1    1.0000      -0.055877      -4.116876       4.316647      -0.612494       0.712809      -0.341693
      4   2   -1.0000      -2.390435      -2.052132      -2.011336       0.156338       0.319646       0.934551
      5   2   -1.0000      -3.274115      -4.655420       3.012502      -0.190959      -0.101929       0.976292
ITEM: TIMESTEP
1500
ITEM: NUMBER OF ATOMS
5
ITEM: BOX BOUNDS ff ff ff
-5.00000000    5.00000000     
-5.00000000    5.00000000     
-5.00000000    5.00000000     
ITEM: ATOMS id type q x y z mux muy muz
      1   1    1.0000      -0.411905      -4.993279      -3.113993      -0.761760       0.259216       0.593741
      2   2   -1.0000       2.860948      -4.497752      -1.710198      -0.818951      -0.429668      -0.380400
      3   1    1.0000      -0.078481      -4.095077       4.282464      -0.618618       0.691693      -0.372656
      4   2   -1.0000      -2.361564      -2.062956      -2.017834       0.126089       0.327960       0.936239
      5   2   -1.0000      -3.310726      -4.629973       3.067542      -0.231631      -0.115916       0.965873
ITEM: TIMESTEP
1600
ITEM: NUMBER OF ATOMS
5
ITEM: BOX BOUNDS ff ff ff
-5.00000000    5.00000000     
-5.00000000    5.00000000     
-5.00000000    5.00000000     
ITEM: ATOMS id type q x y z mux muy muz
      1   1    1.0000      -0.394966      -4.988882      -3.071429      -0.849984      -0.002981       0.526800
      2   2   -1.0000       2.873587      -4.465805      -1.766781      -0.819695      -0.442685      -0.363496
      3   1    1.0000      -0.101752      -4.073596       4.247618      -0.624898       0.668908      -0.402573
      4   2   -1.0000      -2.332210      -2.074789      -2.024519       0.095952       0.339639       0.935649
      5   2   -1.0000      -3.346390      -4.604459       3.123091      -0.274986      -0.130197       0.952592
ITEM: TIMESTEP
1700
ITEM: NUMBER OF ATOMS
5
ITEM: BOX BOUNDS ff ff ff
-5.00000000    5.00000000     
-5.00000000    5.00000000     
-5.00000000    5.00000000     
ITEM: ATOMS id type q x y z mux muy muz
      1   1    1.0000      -0.378590      -4.970094      -3.028895      -0.870812      -0.261595       0.416238
      2   2   -1.0000       2.886084      -4.434124      -1.822991      -0.819488      -0.453331      -0.350613
      3   1    1.0000      -0.125734      -4.052481       4.212168      -0.631415       0.644451      -0.431274
      4   2   -1.0000      -2.302532      -2.087609      -2.031352       0.066667       0.354144       0.932812
      5   2   -1.0000      -3.380957      -4.578911       3.179051      -0.320691      -0.144575       0.936085
ITEM: TIMESTEP
1800
ITEM: NUMBER OF ATOMS
5
ITEM: BOX BOUNDS ff ff ff
-5.00000000    5.00000000     
-5.00000000    5.00000000     
-5.00000000    5.00000000     
ITEM: ATOMS id type q x y z mux muy muz
      1   1    1.0000      -0.362704      -4.950229      -2.986463      -0.824676      -0.496130       0.271597
      2   2   -1.0000       2.898444      -4.402746      -1.878761      -0.818929      -0.461425      -0.341235
      3   1    1.0000      -0.150495      -4.031764       4.176157      -0.638255       0.618383      -0.458511
      4   2   -1.0000      -2.272672      -2.101375      -2.038310       0.038947       0.370828       0.927885
      5   2   -1.0000      -3.414301      -4.553344       3.235358      -0.368242      -0.158823       0.916064
ITEM: TIMESTEP
1900
ITEM: NUMBER OF ATOMS
5
ITEM: BOX BOUNDS ff ff ff
-5.00000000    5.00000000     
-5.00000000    5.00000000     
-5.00000000    5.00000000     
ITEM: ATOMS id type q x y z mux muy muz
      1   1    1.0000      -0.347209      -4.929346      -2.944142      -0.717180      -0.689010       0.104488
      2   2   -1.0000       2.910687      -4.371681      -1.934088      -0.818522      -0.466848      -0.334775
      3   1    1.0000      -0.176135      -4.011457       4.139596      -0.645504       0.590844      -0.483971
      4   2   -1.0000      -2.242743      -2.116026      -2.045391       0.013453       0.388932       0.921168
      5   2   -1.0000      -3.446330      -4.527744       3.292006      -0.416967      -0.172680       0.892368
ITEM: TIMESTEP
2000
ITEM: NUMBER OF ATOMS
5
ITEM: BOX BOUNDS ff ff ff
-5.00000000    5.00000000     
-5.00000000    5.00000000     
-5.00000000    5.00000000     
ITEM: ATOMS id type q x y z mux muy muz
      1   1    1.0000      -0.332008      -4.907525      -2.901927      -0.558126      -0.826584      -0.072487
      2   2   -1.0000       2.922831      -4.340936      -1.988973      -0.818642      -0.469608      -0.330596
      3   1    1.0000      -0.202760      -3.991572       4.102503      -0.653255       0.562052      -0.507303
      4   2   -1.0000      -2.212847      -2.131479      -2.052605      -0.009278       0.407641       0.913095
      5   2   -1.0000      -3.476945      -4.502091       3.348984      -0.466063      -0.185879       0.865006
ITEM: TIMESTEP
2100
ITEM: NUMBER OF ATOMS
5
ITEM: BOX BOUNDS ff ff ff
-5.00000000    5.00000000     
-5.00000000    5.00000000     
-5.00000000    5.00000000     
ITEM: ATOMS id type q x y z mux muy muz
      1   1    1.0000      -0.317015      -4.884864      -2.859794      -0.360414      -0.899592      -0.246652
      2   2   -1.0000       2.934886      -4.310524      -2.043425      -0.819509      -0.469875      -0.328059
      3   1    1.0000      -0.230482      -3.972123       4.064902      -0.661601       0.532300      -0.528149
      4   2   -1.0000      -2.183070      -2.147632      -2.059974      -0.028917       0.426154       0.904188
      5   2   -1.0000      -3.506048      -4.476367       3.406272      -0.514651      -0.198161       0.834186
ITEM: TIMESTEP
2200
ITEM: NUMBER OF ATOMS
5
ITEM: BOX BOUNDS ff ff ff
-5.00000000    5.00000000     
-5.00000000    5.00000000     
-5.00000000    5.00000000     
ITEM: ATOMS id type q x y z mux muy muz
      1   1    1.0000      -0.302168      -4.861468      -2.817707      -0.138998      -0.903262      -0.405952
      2   2   -1.0000       2.946857      -4.280457      -2.097456      -0.821171      -0.467994      -0.326588
      3   1    1.0000      -0.259412      -3.953123       4.026833      -0.670639       0.501925      -0.546182
      4   2   -1.0000      -2.153472      -2.164375      -2.067531      -0.045392       0.443753       0.894999
      5   2   -1.0000      -3.533534      -4.450549       3.463842      -0.561859      -0.209309       0.800315
ITEM: TIMESTEP
2300
ITEM: NUMBER OF ATOMS
5
ITEM: BOX BOUNDS ff ff ff
-5.00000000    5.00000000     
-5.00000000    5.00000000     
-5.00000000    5.00000000     
ITEM: ATOMS id type q x y z mux muy muz
      1   1    1.0000      -0.287433      -4.837439      -2.775619       0.089969      -0.837210      -0.539431
      2   2   -1.0000       2.958745      -4.250751      -2.151079      -0.823511      -0.464465      -0.325732
      3   1    1.0000      -0.289665      -3.934587       3.988345      -0.680461       0.471284      -0.561128
      4   2   -1.0000      -2.124076      -2.181599      -2.075316      -0.058914       0.459869       0.886030
      5   2   -1.0000      -3.559299      -4.424617       3.521650      -0.606893      -0.219159       0.763970
ITEM: TIMESTEP
2400
ITEM: NUMBER OF ATOMS
5
ITEM: BOX BOUNDS ff ff ff
-5.00000000    5.00000000     
-5.00000000    5.00000000     
-5.00000000    5.00000000     
ITEM: ATOMS id type q x y z mux muy muz
      1   1    1.0000      -0.272816      -4.812867      -2.733480       0.309825      -0.705328      -0.637590
      2   2   -1.0000       2.970539      -4.221426      -2.204310      -0.826275      -0.459897      -0.325213
      3   1    1.0000      -0.321349      -3.916530       3.949504      -0.691148       0.440714      -0.572788
      4   2   -1.0000      -2.094864      -2.199207      -2.083369      -0.069973       0.474130       0.877670
      5   2   -1.0000      -3.583239      -4.398550       3.579635      -0.649111      -0.227617       0.725841
ITEM: TIMESTEP
2500
ITEM: NUMBER OF ATOMS
5
ITEM: BOX BOUNDS ff ff ff
-5.00000000    5.00000000     
-5.00000000    5.00000000     
-5.00000000    5.00000000     
ITEM: ATOMS id type q x y z mux muy muz
      1   1    1.0000      -0.258366      -4.787817      -2.691242       0.504011      -0.515800      -0.692765
      2   2   -1.0000       2.982224      -4.192500      -2.257161      -0.829110      -0.454953      -0.324952
      3   1    1.0000      -0.354567      -3.898969       3.910392      -0.702770       0.410504      -0.581034
      4   2   -1.0000      -2.065770      -2.217127      -2.091728      -0.079298       0.486394       0.870134
      5   2   -1.0000      -3.605250      -4.372331       3.637720      -0.688057      -0.234654       0.686669
ITEM: TIMESTEP
2600
ITEM: NUMBER OF ATOMS
5
ITEM: BOX BOUNDS ff ff ff
-5.00000000    5.00000000     
-5.00000000    5.00000000     
-5.00000000    5.00000000     
ITEM: ATOMS id type q x y z mux muy muz
      1   1    1.0000      -0.244181      -4.762324      -2.648873       0.656831      -0.281171      -0.699654
      2   2   -1.0000       2.993775      -4.163993      -2.309644      -0.831613      -0.450285      -0.325059
      3   1    1.0000      -0.389413      -3.881923       3.871109      -0.715382       0.380875      -0.585800
      4   2   -1.0000      -2.036680      -2.235320      -2.100418      -0.087808       0.496762       0.863434
      5   2   -1.0000      -3.625229      -4.345945       3.695806      -0.723473      -0.240303       0.647180
ITEM: TIMESTEP
2700
ITEM: NUMBER OF ATOMS
5
ITEM: BOX BOUNDS ff ff ff
-5.00000000    5.00000000     
-5.00000000    5.00000000     
-5.00000000    5.00000000     
ITEM: ATOMS id type q x y z mux muy muz
      1   1    1.0000      -0.230408      -4.736377      -2.606366       0.754515      -0.018299      -0.656028
      2   2   -1.0000       3.005160      -4.135924      -2.361762      -0.833370      -0.446480      -0.325806
      3   1    1.0000      -0.425970      -3.865406       3.831771      -0.729022       0.351971      -0.587063
      4   2   -1.0000      -2.007430      -2.253793      -2.109440      -0.096539       0.505575       0.857365
      5   2   -1.0000      -3.643081      -4.319382       3.753778      -0.755282      -0.244635       0.608032
ITEM: TIMESTEP
2800
ITEM: NUMBER OF ATOMS
5
ITEM: BOX BOUNDS ff ff ff
-5.00000000    5.00000000     
-5.00000000    5.00000000     
-5.00000000    5.00000000     
ITEM: ATOMS id type q x y z mux muy muz
      1   1    1.0000      -0.217234      -4.709920      -2.563752       0.786661       0.252184      -0.563531
      2   2   -1.0000       3.016341      -4.108310      -2.413512      -0.834002      -0.444006      -0.327565
      3   1    1.0000      -0.464310      -3.849437       3.792510      -0.743714       0.323859      -0.584812
      4   2   -1.0000      -1.977812      -2.272607      -2.118766      -0.106575       0.513405       0.851503
      5   2   -1.0000      -3.658714      -4.292639       3.811501      -0.783555      -0.247749       0.569791
ITEM: TIMESTEP
2900
ITEM: NUMBER OF ATOMS
5
ITEM: BOX BOUNDS ff ff ff
-5.00000000    5.00000000     
-5.00000000    5.00000000     
-5.00000000    5.00000000     
ITEM: ATOMS id type q x y z mux muy muz
      1   1    1.0000      -0.204883      -4.682840      -2.521110       0.747874       0.507188      -0.428305
      2   2   -1.0000       3.027272      -4.081165      -2.464883      -0.833188      -0.443182      -0.330738
      3   1    1.0000      -0.504491      -3.834030       3.753473      -0.759468       0.296540      -0.579027
      4   2   -1.0000      -1.947586      -2.291879      -2.128325      -0.118971       0.521015       0.845215
      5   2   -1.0000      -3.672042      -4.265716       3.868826      -0.808472      -0.249748       0.532915
ITEM: TIMESTEP
3000
ITEM: NUMBER OF ATOMS
5
ITEM: BOX BOUNDS ff ff ff
-5.00000000    5.00000000     
-5.00000000    5.00000000     
-5.00000000    5.00000000     
ITEM: ATOMS id type q x y z mux muy muz
      1   1    1.0000      -0.193598      -4.654976      -2.478580       0.639182       0.723374      -0.261105
      2   2   -1.0000       3.037909      -4.054498      -2.515848      -0.830694      -0.444146      -0.335681
      3   1    1.0000      -0.546557      -3.819197       3.714823      -0.776283       0.269967      -0.569652
      4   2   -1.0000      -1.916494      -2.311784      -2.138002      -0.134671       0.529319       0.837666
      5   2   -1.0000      -3.682989      -4.238621       3.925589      -0.830278      -0.250728       0.497769
ITEM: TIMESTEP
3100
ITEM: NUMBER OF ATOMS
5
ITEM: BOX BOUNDS ff ff ff
-5.00000000    5.00000000     
-5.00000000    5.00000000     
-5.00000000    5.00000000     
ITEM: ATOMS id type q x y z mux muy muz
      1   1    1.0000      -0.183628      -4.626118      -2.436364       0.468744       0.880003      -0.076637
      2   2   -1.0000       3.048208      -4.028313      -2.566368      -0.826394      -0.446851      -0.342634
      3   1    1.0000      -0.590542      -3.804945       3.676732      -0.794140       0.244058      -0.556577
      4   2   -1.0000      -1.884282      -2.332551      -2.147631      -0.154425       0.539310       0.827827
      5   2   -1.0000      -3.691486      -4.211368       3.981612      -0.849254      -0.250768       0.464633
ITEM: TIMESTEP
3200
ITEM: NUMBER OF ATOMS
5
ITEM: BOX BOUNDS ff ff ff
-5.00000000    5.00000000     
-5.00000000    5.00000000     
-5.00000000    5.00000000     
ITEM: ATOMS id type q x y z mux muy muz
      1   1    1.0000      -0.175208      -4.596018      -2.394727       0.251421       0.961844       0.107908
      2   2   -1.0000       3.058133      -4.002611      -2.616384      -0.820290      -0.451062      -0.351665
      3   1    1.0000      -0.636461      -3.791279       3.639385      -0.812996       0.218718      -0.539630
      4   2   -1.0000      -1.850720      -2.354453      -2.157001      -0.178711       0.551972       0.814487
      5   2   -1.0000      -3.697473      -4.183979       4.036708      -0.865686      -0.249921       0.433736
ITEM: TIMESTEP
3300
ITEM: NUMBER OF ATOMS
5
ITEM: BOX BOUNDS ff ff ff
-5.00000000    5.00000000     
-5.00000000    5.00000000     
-5.00000000    5.00000000     
ITEM: ATOMS id type q x y z mux muy muz
      1   1    1.0000      -0.168546      -4.564404      -2.353983       0.007152       0.961442       0.274914
      2   2   -1.0000       3.067659      -3.977390      -2.665820      -0.812528      -0.456386      -0.362644
      3   1    1.0000      -0.684314      -3.778201       3.602976      -0.832769       0.193854      -0.518571
      4   2   -1.0000      -1.815631      -2.377798      -2.165866      -0.207650       0.568183       0.796272
      5   2   -1.0000      -3.700898      -4.156486       4.090674      -0.879850      -0.248220       0.405279
ITEM: TIMESTEP
3400
ITEM: NUMBER OF ATOMS
5
ITEM: BOX BOUNDS ff ff ff
-5.00000000    5.00000000     
-5.00000000    5.00000000     
-5.00000000    5.00000000     
ITEM: ATOMS id type q x y z mux muy muz
      1   1    1.0000      -0.163805      -4.530992      -2.314487      -0.241586       0.880191       0.408534
      2   2   -1.0000       3.076780      -3.952651      -2.714577      -0.803407      -0.462306      -0.375248
      3   1    1.0000      -0.734079      -3.765709       3.567712      -0.853319       0.169395      -0.493104
      4   2   -1.0000      -1.778909      -2.402912      -2.173957      -0.240922       0.588599       0.771692
      5   2   -1.0000      -3.701716      -4.128936       4.143291      -0.891999      -0.245670       0.379453
ITEM: TIMESTEP
3500
ITEM: NUMBER OF ATOMS
5
ITEM: BOX BOUNDS ff ff ff
-5.00000000    5.00000000     
-5.00000000    5.00000000     
-5.00000000    5.00000000     
ITEM: ATOMS id type q x y z mux muy muz
      1   1    1.0000      -0.161094      -4.495501      -2.276604      -0.472710       0.727986       0.496569
      2   2   -1.0000       3.085508      -3.928401      -2.762540      -0.793369      -0.468236      -0.389001
      3   1    1.0000      -0.785708      -3.753799       3.533805      -0.874423       0.145301      -0.462895
      4   2   -1.0000      -1.740540      -2.430124      -2.181005      -0.277699       0.613540       0.739224
      5   2   -1.0000      -3.699894      -4.101385       4.194325      -0.902354      -0.242260       0.356464
ITEM: TIMESTEP
3600
ITEM: NUMBER OF ATOMS
5
ITEM: BOX BOUNDS ff ff ff
-5.00000000    5.00000000     
-5.00000000    5.00000000     
-5.00000000    5.00000000     
ITEM: ATOMS id type q x y z mux muy muz
      1   1    1.0000      -0.160455      -4.457661      -2.240682      -0.667257       0.521630       0.531667
      2   2   -1.0000       3.093874      -3.904658      -2.809577      -0.782969      -0.473581      -0.403336
      3   1    1.0000      -0.839120      -3.742469       3.501483      -0.895748       0.121579      -0.427614
      4   2   -1.0000      -1.700618      -2.459755      -2.186763      -0.316590       0.642894       0.697465
      5   2   -1.0000      -3.695410      -4.073912       4.243520      -0.911106      -0.237969       0.336536
ITEM: TIMESTEP
3700
ITEM: NUMBER OF ATOMS
5
ITEM: BOX BOUNDS ff ff ff
-5.00000000    5.00000000     
-5.00000000    5.00000000     
-5.00000000    5.00000000     
ITEM: ATOMS id type q x y z mux muy muz
      1   1    1.0000      -0.161851      -4.417226      -2.207020      -0.811434       0.282414       0.511680
      2   2   -1.0000       3.101921      -3.881457      -2.855544      -0.772824      -0.477800      -0.417672
      3   1    1.0000      -0.894201      -3.731720       3.470975      -0.916834       0.098293      -0.386980
      4   2   -1.0000      -1.659344      -2.492100      -2.191031      -0.355634       0.676046       0.645357
      5   2   -1.0000      -3.688254      -4.046608       4.290601      -0.918407      -0.232767       0.319918
ITEM: TIMESTEP
3800
ITEM: NUMBER OF ATOMS
5
ITEM: BOX BOUNDS ff ff ff
-5.00000000    5.00000000     
-5.00000000    5.00000000     
-5.00000000    5.00000000     
ITEM: ATOMS id type q x y z mux muy muz
      1   1    1.0000      -0.165167      -4.373981      -2.175835      -0.897750       0.033410       0.439236
      2   2   -1.0000       3.109700      -3.858853      -2.900291      -0.763531      -0.480456      -0.431489
      3   1    1.0000      -0.950796      -3.721553       3.442520      -0.937080       0.075572      -0.340837
      4   2   -1.0000      -1.617032      -2.527419      -2.193690      -0.392377       0.711874       0.582474
      5   2   -1.0000      -3.678433      -4.019583       4.335277      -0.924375      -0.226631       0.306871
ITEM: TIMESTEP
3900
ITEM: NUMBER OF ATOMS
5
ITEM: BOX BOUNDS ff ff ff
-5.00000000    5.00000000     
-5.00000000    5.00000000     
-5.00000000    5.00000000     
ITEM: ATOMS id type q x y z mux muy muz