ITEM: TIMESTEP
0
ITEM: NUMBER OF ATOMS
5
ITEM: BOX BOUNDS ff ff ff
-5.00000000    5.00000000     
-5.00000000    5.00000000     
-5.00000000    5.00000000     
ITEM: ATOMS id type q x y z mux muy muz
      1   1    1.0000       0.218296      -0.659592      -3.079690       0.219203      -0.742517      -0.632944
      2   2   -1.0000      -0.118157      -0.987764       2.954966       0.520614       0.671529       0.527266
      3   1    1.0000       2.636111      -3.659561      -4.114856      -0.035945      -0.662006      -0.748636
      4   2   -1.0000       4.081391       0.355161       3.578077      -0.327967       0.754650       0.568279
      5   2   -1.0000      -4.418078       0.264895       0.394356      -0.885748       0.041335       0.462322
ITEM: TIMESTEP
100
ITEM: NUMBER OF ATOMS
5
ITEM: BOX BOUNDS ff ff ff
-5.00000000    5.00000000     
-5.00000000    5.00000000     
-5.00000000    5.00000000     
ITEM: ATOMS id type q x y z mux muy muz
      1   1    1.0000       0.220170      -0.694838      -3.023763       0.220510      -0.742962      -0.631967
      2   2   -1.0000      -0.153130      -0.979172       2.888178       0.526265       0.670574       0.522853
      3   1    1.0000       2.642961      -3.614482      -4.119509       0.000351      -0.501300      -0.865274
      4   2   -1.0000       4.066702       0.362857       3.584812      -0.332509       0.768721       0.546357
      5   2   -1.0000      -4.377141       0.238774       0.403136      -0.883315       0.044274       0.466685
ITEM: TIMESTEP
200
ITEM: NUMBER OF ATOMS
5
ITEM: BOX BOUNDS ff ff ff
-5.00000000    5.00000000     
-5.00000000    5.00000000     
-5.00000000    5.00000000     
ITEM: ATOMS id type q x y z mux muy muz
      1   1    1.0000       0.221557      -0.729497      -2.966861       0.219310      -0.746419      -0.628300
      2   2   -1.0000      -0.187943      -0.970977       2.821215       0.530070       0.670610       0.518949
      3   1    1.0000       2.650025      -3.569695      -4.124205       0.041651      -0.323317      -0.945373
      4   2   -1.0000       4.052379       0.370591       3.591427      -0.338401       0.777642       0.529866
      5   2   -1.0000      -4.336455       0.212717       0.411277      -0.879339       0.045849       0.473983
ITEM: TIMESTEP
300
ITEM: NUMBER OF ATOMS
5
ITEM: BOX BOUNDS ff ff ff
-5.00000000    5.00000000     
-5.00000000    5.00000000     
-5.00000000    5.00000000     
ITEM: ATOMS id type q x y z mux muy muz
      1   1    1.0000       0.222391      -0.763560      -2.908930       0.215923      -0.752368      -0.622351
      2   2   -1.0000      -0.222551      -0.963187       2.754099       0.532277       0.671478       0.515556
      3   1    1.0000       2.657356      -3.525216      -4.128992       0.086496      -0.136022      -0.986923
      4   2   -1.0000       4.038418       0.378360       3.597924      -0.345297       0.782850       0.517606
      5   2   -1.0000      -4.296050       0.186742       0.418752      -0.874086       0.046333       0.483557
ITEM: TIMESTEP
400
ITEM: NUMBER OF ATOMS
5
ITEM: BOX BOUNDS ff ff ff
-5.00000000    5.00000000     
-5.00000000    5.00000000     
-5.00000000    5.00000000     
ITEM: ATOMS id type q x y z mux muy muz
      1   1    1.0000       0.222597      -0.797018      -2.849920       0.210510      -0.760403      -0.614388
      2   2   -1.0000      -0.256904      -0.955816       2.686851       0.533066       0.673063       0.512666
      3   1    1.0000       2.665010      -3.481057      -4.133910       0.133384       0.052774      -0.989658
      4   2   -1.0000       4.024817       0.386162       3.604299      -0.352897       0.785364       0.508593
      5   2   -1.0000      -4.255957       0.160868       0.425534      -0.867739       0.045930       0.494893
ITEM: TIMESTEP
500
ITEM: NUMBER OF ATOMS
5
ITEM: BOX BOUNDS ff ff ff
-5.00000000    5.00000000     
-5.00000000    5.00000000     
-5.00000000    5.00000000     
ITEM: ATOMS id type q x y z mux muy muz
      1   1    1.0000       0.222095      -0.829867      -2.789793       0.203123      -0.770207      -0.604585
      2   2   -1.0000      -0.290948      -0.948876       2.619496       0.532560       0.675282       0.510268
      3   1    1.0000       2.673049      -3.437224      -4.138993       0.180835       0.235765      -0.954837
      4   2   -1.0000       4.011575       0.393991       3.610548      -0.360955       0.785917       0.502042
      5   2   -1.0000      -4.216208       0.135115       0.431596      -0.860424       0.044797       0.507606
ITEM: TIMESTEP
600
ITEM: NUMBER OF ATOMS
5
ITEM: BOX BOUNDS ff ff ff
-5.00000000    5.00000000     
-5.00000000    5.00000000     
-5.00000000    5.00000000     
ITEM: ATOMS id type q x y z mux muy muz
      1   1    1.0000       0.220803      -0.862103      -2.728518       0.193745      -0.781515      -0.593041
      2   2   -1.0000      -0.324626      -0.942384       2.552057       0.530837       0.678081       0.508348
      3   1    1.0000       2.681534      -3.393719      -4.144260       0.227414       0.406342      -0.884968
      4   2   -1.0000       3.998689       0.401843       3.616665      -0.369277       0.785038       0.497343
      5   2   -1.0000      -4.176837       0.109503       0.436910      -0.852225       0.043051       0.521400
ITEM: TIMESTEP
700
ITEM: NUMBER OF ATOMS
5
ITEM: BOX BOUNDS ff ff ff
-5.00000000    5.00000000     
-5.00000000    5.00000000     
-5.00000000    5.00000000     
ITEM: ATOMS id type q x y z mux muy muz
      1   1    1.0000       0.218639      -0.893727      -2.666075       0.182314      -0.794095      -0.579805
      2   2   -1.0000      -0.357879      -0.936358       2.484560       0.527937       0.681430       0.506889
      3   1    1.0000       2.690523      -3.350540      -4.149724       0.271752       0.558707      -0.783580
      4   2   -1.0000       3.986156       0.409711       3.622646      -0.377712       0.783113       0.494031
      5   2   -1.0000      -4.137877       0.084053       0.441447      -0.843196       0.040779       0.536058
ITEM: TIMESTEP
800
ITEM: NUMBER OF ATOMS
5
ITEM: BOX BOUNDS ff ff ff
-5.00000000    5.00000000     
-5.00000000    5.00000000     
-5.00000000    5.00000000     
ITEM: ATOMS id type q x y z mux muy muz
      1   1    1.0000       0.215521      -0.924738      -2.602453       0.168748      -0.807732      -0.564883
      2   2   -1.0000      -0.390642      -0.930817       2.417029       0.523873       0.685310       0.505872
      3   1    1.0000       2.700072      -3.307681      -4.155382       0.312553       0.687936      -0.655023
      4   2   -1.0000       3.973975       0.417589       3.628482      -0.386147       0.780428       0.491755
      5   2   -1.0000      -4.099364       0.058787       0.445179      -0.833364       0.038047       0.551414
ITEM: TIMESTEP
900
ITEM: NUMBER OF ATOMS
5
ITEM: BOX BOUNDS ff ff ff
-5.00000000    5.00000000     
-5.00000000    5.00000000     
-5.00000000    5.00000000     
ITEM: ATOMS id type q x y z mux muy muz
      1   1    1.0000       0.211375      -0.955136      -2.537651       0.152958      -0.822209      -0.548248
      2   2   -1.0000      -0.422850      -0.925786       2.349487       0.518633       0.689720       0.505278
      3   1    1.0000       2.710228      -3.265132      -4.161226       0.348609       0.790027      -0.504310
      4   2   -1.0000       3.962141       0.425469       3.634166      -0.394495       0.777193       0.490249
      5   2   -1.0000      -4.061332       0.033725       0.448078      -0.822741       0.034903       0.567344
ITEM: TIMESTEP
1000
ITEM: NUMBER OF ATOMS
5
ITEM: BOX BOUNDS ff ff ff
-5.00000000    5.00000000     
-5.00000000    5.00000000     
-5.00000000    5.00000000     
ITEM: ATOMS id type q x y z mux muy muz
      1   1    1.0000       0.206132      -0.984917      -2.471673       0.134863      -0.837301      -0.529847
      2   2   -1.0000      -0.454435      -0.921290       2.281957       0.512188       0.694660       0.505085
      3   1    1.0000       2.721031      -3.222885      -4.167237       0.378812       0.861945      -0.336976
      4   2   -1.0000       3.950652       0.433342       3.639692      -0.402696       0.773566       0.489317
      5   2   -1.0000      -4.023816       0.008888       0.450115      -0.811322       0.031386       0.583756
ITEM: TIMESTEP
1100
ITEM: NUMBER OF ATOMS
5
ITEM: BOX BOUNDS ff ff ff
-5.00000000    5.00000000     
-5.00000000    5.00000000     
-5.00000000    5.00000000     
ITEM: ATOMS id type q x y z mux muy muz
      1   1    1.0000       0.199730      -1.014075      -2.404529       0.114395      -0.852771      -0.509603
      2   2   -1.0000      -0.485328      -0.917356       2.214457       0.504491       0.700139       0.505266
      3   1    1.0000       2.732510      -3.180928      -4.173389       0.402179       0.901659      -0.158946
      4   2   -1.0000       3.939504       0.441202       3.645054      -0.410705       0.769666       0.488811
      5   2   -1.0000      -3.986853      -0.015704       0.451262      -0.799092       0.027521       0.600578
ITEM: TIMESTEP
1200
ITEM: NUMBER OF ATOMS
5
ITEM: BOX BOUNDS ff ff ff
-5.00000000    5.00000000     
-5.00000000    5.00000000     
-5.00000000    5.00000000     
ITEM: ATOMS id type q x y z mux muy muz
      1   1    1.0000       0.192118      -1.042598      -2.336234       0.091509      -0.868363      -0.487413
      2   2   -1.0000      -0.515455      -0.914017       2.147004       0.495483       0.706165       0.505795
      3   1    1.0000       2.744684      -3.139252      -4.179652       0.417880       0.908195       0.023609
      4   2   -1.0000       3.928694       0.449037       3.650244      -0.418493       0.765583       0.488617
      5   2   -1.0000      -3.950478      -0.040031       0.451491      -0.786026       0.023331       0.617753
ITEM: TIMESTEP
1300
ITEM: NUMBER OF ATOMS
5
ITEM: BOX BOUNDS ff ff ff
-5.00000000    5.00000000     
-5.00000000    5.00000000     
-5.00000000    5.00000000     
ITEM: ATOMS id type q x y z mux muy muz
      1   1    1.0000       0.183256      -1.070466      -2.266800       0.066182      -0.883802      -0.463157
      2   2   -1.0000      -0.544744      -0.911308       2.079612       0.485093       0.712742       0.506639
      3   1    1.0000       2.757560      -3.097853      -4.185992       0.425275       0.881674       0.204432
      4   2   -1.0000       3.918216       0.456841       3.655257      -0.426040       0.761386       0.488652
      5   2   -1.0000      -3.914725      -0.064074       0.450776      -0.772090       0.018830       0.635234
ITEM: TIMESTEP
1400
ITEM: NUMBER OF ATOMS
5
ITEM: BOX BOUNDS ff ff ff
-5.00000000    5.00000000     
-5.00000000    5.00000000     
-5.00000000    5.00000000     
ITEM: ATOMS id type q x y z mux muy muz
      1   1    1.0000       0.173112      -1.097654      -2.196242       0.038421      -0.898790      -0.436692
      2   2   -1.0000      -0.573118      -0.909266       2.012292       0.473243       0.719871       0.507766
      3   1    1.0000       2.771133      -3.056728      -4.192376       0.423946       0.823324       0.377368
      4   2   -1.0000       3.908067       0.464602       3.660090      -0.433334       0.757131       0.488850
      5   2   -1.0000      -3.879631      -0.087815       0.449089      -0.757250       0.014031       0.652975
ITEM: TIMESTEP
1500
ITEM: NUMBER OF ATOMS
5
ITEM: BOX BOUNDS ff ff ff
-5.00000000    5.00000000     
-5.00000000    5.00000000     
-5.00000000    5.00000000     
ITEM: ATOMS id type q x y z mux muy muz
      1   1    1.0000       0.161666      -1.124125      -2.124570       0.008260      -0.913011      -0.407852
      2   2   -1.0000      -0.600500      -0.907934       1.945051       0.459845       0.727543       0.509140
      3   1    1.0000       2.785384      -3.015880      -4.198772       0.413731       0.735470       0.536574
      4   2   -1.0000       3.898243       0.472312       3.664738      -0.440369       0.752860       0.489159
      5   2   -1.0000      -3.845232      -0.111235       0.446406      -0.741465       0.008945       0.670931
ITEM: TIMESTEP
1600
ITEM: NUMBER OF ATOMS
5
ITEM: BOX BOUNDS ff ff ff
-5.00000000    5.00000000     
-5.00000000    5.00000000     
-5.00000000    5.00000000     
ITEM: ATOMS id type q x y z mux muy muz
      1   1    1.0000       0.148910      -1.149835      -2.051790      -0.024237      -0.926119      -0.376453
      2   2   -1.0000      -0.626809      -0.907356       1.877895       0.444807       0.735737       0.510723
      3   1    1.0000       2.800286      -2.975315      -4.205152       0.394739       0.621458       0.676736
      4   2   -1.0000       3.888741       0.479961       3.669199      -0.447145       0.748609       0.489536
      5   2   -1.0000      -3.811565      -0.134316       0.442702      -0.724700       0.003581       0.689055
ITEM: TIMESTEP
1700
ITEM: NUMBER OF ATOMS
5
ITEM: BOX BOUNDS ff ff ff
-5.00000000    5.00000000     
-5.00000000    5.00000000     
-5.00000000    5.00000000     
ITEM: ATOMS id type q x y z mux muy muz
      1   1    1.0000       0.134842      -1.174734      -1.977907      -0.058976      -0.937742      -0.342290
      2   2   -1.0000      -0.651962      -0.907583       1.810824       0.428032       0.744414       0.512480
      3   1    1.0000       2.815795      -2.935046      -4.211491       0.367367       0.485544       0.793277
      4   2   -1.0000       3.879557       0.487537       3.673472      -0.453664       0.744407       0.489947
      5   2   -1.0000      -3.778669      -0.157036       0.437956      -0.706921      -0.002051       0.707289
ITEM: TIMESTEP
1800
ITEM: NUMBER OF ATOMS
5
ITEM: BOX BOUNDS ff ff ff
-5.00000000    5.00000000     
-5.00000000    5.00000000     
-5.00000000    5.00000000     
ITEM: ATOMS id type q x y z mux muy muz
      1   1    1.0000       0.119472      -1.198760      -1.902922      -0.095832      -0.947473      -0.305142
      2   2   -1.0000      -0.675875      -0.908666       1.743838       0.409420       0.753520       0.514377
      3   1    1.0000       2.831859      -2.895090      -4.217770       0.332281       0.332722       0.882545
      4   2   -1.0000       3.870689       0.495031       3.677556      -0.459929       0.740278       0.490360
      5   2   -1.0000      -3.746583      -0.179376       0.432152      -0.688105      -0.007939       0.725568
ITEM: TIMESTEP
1900
ITEM: NUMBER OF ATOMS
5
ITEM: BOX BOUNDS ff ff ff
-5.00000000    5.00000000     
-5.00000000    5.00000000     
-5.00000000    5.00000000     
ITEM: ATOMS id type q x y z mux muy muz
      1   1    1.0000       0.102815      -1.221844      -1.826832      -0.134645      -0.954863      -0.264780
      2   2   -1.0000      -0.698457      -0.910665       1.676931       0.388870       0.762972       0.516386
      3   1    1.0000       2.848417      -2.855470      -4.223972       0.290400       0.168505       0.941952
      4   2   -1.0000       3.862135       0.502431       3.681451      -0.465948       0.736245       0.490751
      5   2   -1.0000      -3.715347      -0.201313       0.425275      -0.668241      -0.014072       0.743812
ITEM: TIMESTEP
2000
ITEM: NUMBER OF ATOMS
5
ITEM: BOX BOUNDS ff ff ff
-5.00000000    5.00000000     
-5.00000000    5.00000000     
-5.00000000    5.00000000     
ITEM: ATOMS id type q x y z mux muy muz
      1   1    1.0000       0.084894      -1.243910      -1.749635      -0.175215      -0.959413      -0.220966
      2   2   -1.0000      -0.719619      -0.913638       1.610091       0.366284       0.772661       0.518488
      3   1    1.0000       2.865394      -2.816215      -4.230083       0.242852      -0.001304       0.970063
      4   2   -1.0000       3.853896       0.509726       3.685159      -0.471727       0.732324       0.491096
      5   2   -1.0000      -3.685002      -0.222824       0.417321      -0.647335      -0.020432       0.761931
ITEM: TIMESTEP
2100
ITEM: NUMBER OF ATOMS
5
ITEM: BOX BOUNDS ff ff ff
-5.00000000    5.00000000     
-5.00000000    5.00000000     
-5.00000000    5.00000000     
ITEM: ATOMS id type q x y z mux muy muz
      1   1    1.0000       0.065735      -1.264871      -1.671328      -0.217299      -0.960566      -0.173475
      2   2   -1.0000      -0.739265      -0.917651       1.543301       0.341565       0.782447       0.520683
      3   1    1.0000       2.882711      -2.777360      -4.236093       0.190922      -0.170872       0.966619
      4   2   -1.0000       3.845972       0.516902       3.688683      -0.477276       0.728530       0.491377
      5   2   -1.0000      -3.655590      -0.243881       0.408290      -0.625422      -0.027000       0.779820
ITEM: TIMESTEP
2200
ITEM: NUMBER OF ATOMS
5
ITEM: BOX BOUNDS ff ff ff
-5.00000000    5.00000000     
-5.00000000    5.00000000     
-5.00000000    5.00000000     
ITEM: ATOMS id type q x y z mux muy muz
      1   1    1.0000       0.045369      -1.284632      -1.591909      -0.260597      -0.957696      -0.122097
      2   2   -1.0000      -0.757296      -0.922772       1.476532       0.314620       0.792147       0.522989
      3   1    1.0000       2.900277      -2.738948      -4.241989       0.135999      -0.334573       0.932505
      4   2   -1.0000       3.838366       0.523947       3.692025      -0.482602       0.724878       0.491577
      5   2   -1.0000      -3.627153      -0.264456       0.398195      -0.602562      -0.033749       0.797358
ITEM: TIMESTEP
2300
ITEM: NUMBER OF ATOMS
5
ITEM: BOX BOUNDS ff ff ff
-5.00000000    5.00000000     
-5.00000000    5.00000000     
-5.00000000    5.00000000     
ITEM: ATOMS id type q x y z mux muy muz
      1   1    1.0000       0.023826      -1.303085      -1.511378      -0.304743      -0.950099      -0.066661
      2   2   -1.0000      -0.773608      -0.929071       1.409742       0.285363       0.801536       0.525460
      3   1    1.0000       2.917995      -2.701033      -4.247760       0.079512      -0.487211       0.869657
      4   2   -1.0000       3.831082       0.530845       3.695188      -0.487714       0.721377       0.491681
      5   2   -1.0000      -3.599732      -0.284517       0.387062      -0.578855      -0.040647       0.814417
ITEM: TIMESTEP
2400
ITEM: NUMBER OF ATOMS
5
ITEM: BOX BOUNDS ff ff ff
-5.00000000    5.00000000     
-5.00000000    5.00000000     
-5.00000000    5.00000000     
ITEM: ATOMS id type q x y z mux muy muz
      1   1    1.0000       0.001138      -1.320109      -1.429738      -0.349287      -0.936989      -0.007049
      2   2   -1.0000      -0.788091      -0.936622       1.342870       0.253715       0.810335       0.528191
      3   1    1.0000       2.935760      -2.663682      -4.253389       0.022873      -0.624204       0.780926
      4   2   -1.0000       3.824126       0.537579       3.698176      -0.492620       0.718036       0.491681
      5   2   -1.0000      -3.573369      -0.304026       0.374935      -0.554444      -0.047654       0.830855
ITEM: TIMESTEP
2500
ITEM: NUMBER OF ATOMS
5
ITEM: BOX BOUNDS ff ff ff
-5.00000000    5.00000000     
-5.00000000    5.00000000     
-5.00000000    5.00000000     
ITEM: ATOMS id type q x y z mux muy muz
      1   1    1.0000      -0.022669      -1.335566      -1.346992      -0.393674      -0.917495       0.056779
      2   2   -1.0000      -0.800627      -0.945501       1.275831       0.219605       0.818201       0.531338
      3   1    1.0000       2.953458      -2.626982      -4.258855      -0.032578      -0.741727       0.669910
      4   2   -1.0000       3.817505       0.544132       3.700992      -0.497328       0.714861       0.491568
      5   2   -1.0000      -3.548106      -0.322943       0.361878      -0.529524      -0.054722       0.846528
ITEM: TIMESTEP
2600
ITEM: NUMBER OF ATOMS
5
ITEM: BOX BOUNDS ff ff ff
-5.00000000    5.00000000     
-5.00000000    5.00000000     
-5.00000000    5.00000000     
ITEM: ATOMS id type q x y z mux muy muz
      1   1    1.0000      -0.047569      -1.349298      -1.263141      -0.437225      -0.890656       0.124763
      2   2   -1.0000      -0.811083      -0.955784       1.208506       0.182968       0.824714       0.535134
      3   1    1.0000       2.970968      -2.591042      -4.264132      -0.085620      -0.836806       0.540763
      4   2   -1.0000       3.811232       0.550482       3.703638      -0.501842       0.711857       0.491339
      5   2   -1.0000      -3.523986      -0.341218       0.347982      -0.504341      -0.061794       0.861291
ITEM: TIMESTEP
2700
ITEM: NUMBER OF ATOMS
5
ITEM: BOX BOUNDS ff ff ff
-5.00000000    5.00000000     
-5.00000000    5.00000000     
-5.00000000    5.00000000     
ITEM: ATOMS id type q x y z mux muy muz
      1   1    1.0000      -0.073544      -1.361122      -1.178183      -0.479102      -0.855434       0.196707
      2   2   -1.0000      -0.819311      -0.967548       1.140734       0.143744       0.829353       0.539918
      3   1    1.0000       2.988155      -2.556001      -4.269186      -0.135181      -0.907370       0.398003
      4   2   -1.0000       3.805320       0.556603       3.706116      -0.506167       0.709027       0.490994
      5   2   -1.0000      -3.501059      -0.358792       0.333373      -0.479203      -0.068804       0.875003
ITEM: TIMESTEP
2800
ITEM: NUMBER OF ATOMS
5
ITEM: BOX BOUNDS ff ff ff
-5.00000000    5.00000000     
-5.00000000    5.00000000     
-5.00000000    5.00000000     
ITEM: ATOMS id type q x y z mux muy muz
      1   1    1.0000      -0.100583      -1.370826      -1.092100      -0.518275      -0.810723       0.272248
      2   2   -1.0000      -0.825133      -0.980864       1.072291       0.101874       0.831460       0.546164
      3   1    1.0000       3.004870      -2.522043      -4.273979      -0.180375      -0.952256       0.246320
      4   2   -1.0000       3.799788       0.562464       3.708424      -0.510304       0.706373       0.490537
      5   2   -1.0000      -3.479380      -0.375591       0.318217      -0.454478      -0.075678       0.887537
ITEM: TIMESTEP
2900
ITEM: NUMBER OF ATOMS
5
ITEM: BOX BOUNDS ff ff ff
-5.00000000    5.00000000     
-5.00000000    5.00000000     
-5.00000000    5.00000000     
ITEM: ATOMS id type q x y z mux muy muz
      1   1    1.0000      -0.128684      -1.378165      -1.004852      -0.553483      -0.755372       0.350813
      2   2   -1.0000      -0.828331      -0.995798       1.002873       0.057291       0.830192       0.554526
      3   1    1.0000       3.020944      -2.489404      -4.278460      -0.220509      -0.971187       0.090403
      4   2   -1.0000       3.794659       0.568028       3.710561      -0.514253       0.703895       0.489974
      5   2   -1.0000      -3.459025      -0.391521       0.302732      -0.430592      -0.082335       0.898784
ITEM: TIMESTEP
3000
ITEM: NUMBER OF ATOMS
5
ITEM: BOX BOUNDS ff ff ff
-5.00000000    5.00000000     
-5.00000000    5.00000000     
-5.00000000    5.00000000     
ITEM: ATOMS id type q x y z mux muy muz
      1   1    1.0000      -0.157865      -1.382857      -0.916350      -0.583181      -0.688225       0.431564
      2   2   -1.0000      -0.828626      -1.012397       0.932054       0.009913       0.824423       0.565887
      3   1    1.0000       3.036180      -2.458391      -4.282573      -0.255096      -0.964714      -0.065214
      4   2   -1.0000       3.789965       0.573246       3.712519      -0.518011       0.701594       0.489317
      5   2   -1.0000      -3.440092      -0.406461       0.287204      -0.408023      -0.088689       0.908654
ITEM: TIMESTEP
3100
ITEM: NUMBER OF ATOMS
5
ITEM: BOX BOUNDS ff ff ff
-5.00000000    5.00000000     
-5.00000000    5.00000000     
-5.00000000    5.00000000     
ITEM: ATOMS id type q x y z mux muy muz
      1   1    1.0000      -0.188170      -1.384581      -0.826416      -0.605482      -0.608180       0.513331
      2   2   -1.0000      -0.825638      -1.030681       0.859238      -0.040377       0.812597       0.581426
      3   1    1.0000       3.050345      -2.429406      -4.286252      -0.283857      -0.934157      -0.216279
      4   2   -1.0000       3.785746       0.578057       3.714286      -0.521569       0.699469       0.488578
      5   2   -1.0000      -3.422720      -0.420250       0.271998      -0.387298      -0.094649       0.917083
ITEM: TIMESTEP
3200
ITEM: NUMBER OF ATOMS
5
ITEM: BOX BOUNDS ff ff ff
-5.00000000    5.00000000     
-5.00000000    5.00000000     
-5.00000000    5.00000000     
ITEM: ATOMS id type q x y z mux muy muz
      1   1    1.0000      -0.219714      -1.382978      -0.734697      -0.618100      -0.514295       0.594520
      2   2   -1.0000      -0.818829      -1.050623       0.783545      -0.093737       0.792462       0.602675
      3   1    1.0000       3.063160      -2.402968      -4.289422      -0.306716      -0.881534      -0.358919
      4   2   -1.0000       3.782051       0.582386       3.715846      -0.524917       0.697522       0.487776
      5   2   -1.0000      -3.407106      -0.432678       0.257582      -0.368971      -0.100126       0.924032
ITEM: TIMESTEP
3300
ITEM: NUMBER OF ATOMS
5
ITEM: BOX BOUNDS ff ff ff
-5.00000000    5.00000000     
-5.00000000    5.00000000     
-5.00000000    5.00000000     
ITEM: ATOMS id type q x y z mux muy muz
      1   1    1.0000      -0.252778      -1.377651      -0.640461      -0.618298      -0.405949       0.672988
      2   2   -1.0000      -0.807377      -1.072131       0.703610      -0.150376       0.760616       0.631547
      3   1    1.0000       3.074291      -2.379737      -4.292005      -0.323799      -0.809527      -0.489714
      4   2   -1.0000       3.778944       0.586133       3.717173      -0.528039       0.695755       0.486930
      5   2   -1.0000      -3.393519      -0.443476       0.244536      -0.353611      -0.105027       0.929478
ITEM: TIMESTEP
3400
ITEM: NUMBER OF ATOMS
5
ITEM: BOX BOUNDS ff ff ff
-5.00000000    5.00000000     
-5.00000000    5.00000000     
-5.00000000    5.00000000     
ITEM: ATOMS id type q x y z mux muy muz
      1   1    1.0000      -0.288094      -1.368135      -0.542073      -0.602923      -0.283130       0.745870
      2   2   -1.0000      -0.789885      -1.095088       0.617064      -0.210523       0.711693       0.670204
      3   1    1.0000       3.083359      -2.360509      -4.293925      -0.335440      -0.721494      -0.605744
      4   2   -1.0000       3.776494       0.589187       3.718238      -0.530911       0.694173       0.486063
      5   2   -1.0000      -3.382311      -0.452315       0.233550      -0.341775      -0.109257       0.933409
ITEM: TIMESTEP
3500
ITEM: NUMBER OF ATOMS
5
ITEM: BOX BOUNDS ff ff ff
-5.00000000    5.00000000     
-5.00000000    5.00000000     
-5.00000000    5.00000000     
ITEM: ATOMS id type q x y z mux muy muz
      1   1    1.0000      -0.327730      -1.353686      -0.435444      -0.568705      -0.146835       0.809330
      2   2   -1.0000      -0.763572      -1.119616       0.519072      -0.274326       0.636918       0.720473
      3   1    1.0000       3.089983      -2.346132      -4.295134      -0.342206      -0.621606      -0.704628
      4   2   -1.0000       3.774763       0.591427       3.719009      -0.533505       0.692787       0.485200
      5   2   -1.0000      -3.373882      -0.458854       0.225350      -0.333980      -0.112707       0.935817
ITEM: TIMESTEP
3600
ITEM: NUMBER OF ATOMS
5
ITEM: BOX BOUNDS ff ff ff
-5.00000000    5.00000000     
-5.00000000    5.00000000     
-5.00000000    5.00000000     
ITEM: ATOMS id type q x y z mux muy muz
      1   1    1.0000      -0.340608      -1.352234      -0.389051      -0.514331      -0.000397       0.857592
      2   2   -1.0000      -0.759182      -1.127468       0.477733      -0.341306       0.523530       0.780658
      3   1    1.0000       3.094029      -2.337012      -4.295673      -0.344951      -0.515230      -0.784567
      4   2   -1.0000       3.773745       0.592814       3.719481      -0.535779       0.691615       0.484365
      5   2   -1.0000      -3.368420      -0.462960       0.220364      -0.330621      -0.115244       0.936701
ITEM: TIMESTEP
3700
ITEM: NUMBER OF ATOMS
5
ITEM: BOX BOUNDS ff ff ff
-5.00000000    5.00000000     
-5.00000000    5.00000000     
-5.00000000    5.00000000     
ITEM: ATOMS id type q x y z mux muy muz
      1   1    1.0000      -0.293600      -1.388618      -0.456397      -0.454679       0.138325       0.879849
      2   2   -1.0000      -0.819052      -1.100763       0.551921      -0.405501       0.386472       0.828377
      3   1    1.0000       3.099900      -2.323222      -4.296130      -0.344729      -0.407599      -0.845592
      4   2   -1.0000       3.772314       0.594860       3.720171      -0.537765       0.690630       0.483569
      5   2   -1.0000      -3.360000      -0.469118       0.213289      -0.330969      -0.116959       0.936366
ITEM: TIMESTEP
3800
ITEM: NUMBER OF ATOMS
5
ITEM: BOX BOUNDS ff ff ff
-5.00000000    5.00000000     
-5.00000000    5.00000000     
-5.00000000    5.00000000     
ITEM: ATOMS id type q x y z mux muy muz
      1   1    1.0000      -0.264714      -1.419013      -0.487893      -0.406288       0.259272       0.876190
      2   2   -1.0000      -0.863704      -1.082358       0.591246      -0.464893       0.256166       0.847498
      3   1    1.0000       3.106955      -2.306158      -4.296386      -0.341937      -0.292243      -0.893126
      4   2   -1.0000       3.770642       0.597346       3.720999      -0.539708       0.689688       0.482748
      5   2   -1.0000      -3.349616      -0.476678       0.204887      -0.333352      -0.118198       0.935364
ITEM: TIMESTEP
3900
ITEM: NUMBER OF ATOMS
5
ITEM: BOX BOUNDS ff ff ff
-5.00000000    5.00000000     
-5.00000000    5.00000000     
-5.00000000    5.00000000     
ITEM: ATOMS id type q x y z mux muy muz