ITEM: TIMESTEP
0
ITEM: NUMBER OF ATOMS
5
ITEM: BOX BOUNDS ff ff ff
-5.00000000    5.00000000     
-5.00000000    5.00000000     
-5.00000000    5.00000000     
ITEM: ATOMS id type q x y z mux muy muz
      1   1    1.0000      -1.343369      -4.545201       0.891916      -0.398292      -0.815309      -0.420280
      2   2   -1.0000       2.219238       2.734984      -3.501150      -0.572617       0.803506       0.162753
      3   1    1.0000      -0.558932      -3.231001       1.621374      -0.385610       0.524568       0.759035
      4   2   -1.0000      -3.420059       4.041524      -2.694023      -0.739299       0.019308      -0.673100
      5   2   -1.0000      -2.086141       3.508998      -0.415649       0.392043       0.000156      -0.919947
ITEM: TIMESTEP
100
ITEM: NUMBER OF ATOMS
5
ITEM: BOX BOUNDS ff ff ff
-5.00000000    5.00000000     
-5.00000000    5.00000000     
-5.00000000    5.00000000     
ITEM: ATOMS id type q x y z mux muy muz
      1   1    1.0000      -1.323160      -4.543495       0.882713      -0.349593      -0.920939      -0.172209
      2   2   -1.0000       2.219240       2.714064      -3.432441      -0.577466       0.800486       0.160484
      3   1    1.0000      -0.610413      -3.193752       1.631179      -0.390420       0.522711       0.757856
      4   2   -1.0000      -3.372228       4.030236      -2.731554      -0.746794      -0.007605      -0.665011
      5   2   -1.0000      -2.102700       3.502251      -0.447429       0.388604       0.001112      -0.921404
ITEM: TIMESTEP
200
ITEM: NUMBER OF ATOMS
5
ITEM: BOX BOUNDS ff ff ff
-5.00000000    5.00000000     
-5.00000000    5.00000000     
-5.00000000    5.00000000     
ITEM: ATOMS id type q x y z mux muy muz
      1   1    1.0000      -1.304344      -4.542571       0.873413      -0.262421      -0.961522       0.081304
      2   2   -1.0000       2.219514       2.692753      -3.363530      -0.584557       0.795773       0.158238
      3   1    1.0000      -0.660598      -3.154863       1.640755      -0.400452       0.526917       0.749665
      4   2   -1.0000      -3.324092       4.018887      -2.770304      -0.757521      -0.037730      -0.651719
      5   2   -1.0000      -2.119741       3.495097      -0.477866       0.368280       0.010766      -0.929653
ITEM: TIMESTEP
300
ITEM: NUMBER OF ATOMS
5
ITEM: BOX BOUNDS ff ff ff
-5.00000000    5.00000000     
-5.00000000    5.00000000     
-5.00000000    5.00000000     
ITEM: ATOMS id type q x y z mux muy muz
      1   1    1.0000      -1.286766      -4.542747       0.863585      -0.144561      -0.936468       0.319577
      2   2   -1.0000       2.220069       2.671108      -3.294609      -0.594196       0.789055       0.155957
      3   1    1.0000      -0.709550      -3.114133       1.650517      -0.413813       0.543668       0.730195
      4   2   -1.0000      -3.275738       4.007500      -2.810069      -0.771416      -0.071349      -0.632318
      5   2   -1.0000      -2.137277       3.487576      -0.506956       0.328834       0.030361      -0.943899
ITEM: TIMESTEP
400
ITEM: NUMBER OF ATOMS
5
ITEM: BOX BOUNDS ff ff ff
-5.00000000    5.00000000     
-5.00000000    5.00000000     
-5.00000000    5.00000000     
ITEM: ATOMS id type q x y z mux muy muz
      1   1    1.0000      -1.270059      -4.544081       0.852853      -0.006811      -0.851616       0.524121
      2   2   -1.0000       2.220909       2.649200      -3.225913      -0.606541       0.780078       0.153580
      3   1    1.0000      -0.757525      -3.071645       1.660827      -0.426723       0.579228       0.694552
      4   2   -1.0000      -3.227296       3.996100      -2.850565      -0.787919      -0.108244      -0.606191
      5   2   -1.0000      -2.155291       3.479730      -0.534734       0.268665       0.060634      -0.961323
ITEM: TIMESTEP
500
ITEM: NUMBER OF ATOMS
5
ITEM: BOX BOUNDS ff ff ff
-5.00000000    5.00000000     
-5.00000000    5.00000000     
-5.00000000    5.00000000     
ITEM: ATOMS id type q x y z mux muy muz
      1   1    1.0000      -1.253729      -4.546329       0.840996       0.138110      -0.718956       0.681196
      2   2   -1.0000       2.222039       2.627088      -3.157644      -0.621474       0.768733       0.151061
      3   1    1.0000      -0.804921      -3.027759       1.671891      -0.433576       0.636826       0.637546
      4   2   -1.0000      -3.178906       3.984707      -2.891477      -0.805889      -0.147538      -0.573389
      5   2   -1.0000      -2.173745       3.471596      -0.561297       0.188125       0.101158      -0.976922
ITEM: TIMESTEP
600
ITEM: NUMBER OF ATOMS
5
ITEM: BOX BOUNDS ff ff ff
-5.00000000    5.00000000     
-5.00000000    5.00000000     
-5.00000000    5.00000000     
ITEM: ATOMS id type q x y z mux muy muz
      1   1    1.0000      -1.237266      -4.549000       0.828033       0.277707      -0.554648       0.784375
      2   2   -1.0000       2.223459       2.604805      -3.089916      -0.638569       0.755128       0.148360
      3   1    1.0000      -0.852189      -2.983025       1.683673      -0.427592       0.713633       0.554880
      4   2   -1.0000      -3.130685       3.973333      -2.932523      -0.823801      -0.187841      -0.534852
      5   2   -1.0000      -2.192581       3.463191      -0.586799       0.090629       0.149924      -0.984535
ITEM: TIMESTEP
700
ITEM: NUMBER OF ATOMS
5
ITEM: BOX BOUNDS ff ff ff
-5.00000000    5.00000000     
-5.00000000    5.00000000     
-5.00000000    5.00000000     
ITEM: ATOMS id type q x y z mux muy muz
      1   1    1.0000      -1.220261      -4.551488       0.814236       0.402249      -0.375126       0.835150
      2   2   -1.0000       2.225173       2.582340      -3.022719      -0.657238       0.739518       0.145433
      3   1    1.0000      -0.899735      -2.938028       1.695884      -0.402518       0.799908       0.445114
      4   2   -1.0000      -3.082712       3.961974      -2.973502      -0.840191      -0.227770      -0.492138
      5   2   -1.0000      -2.211726       3.454505      -0.611431      -0.017662       0.203731      -0.978868
ITEM: TIMESTEP
800
ITEM: NUMBER OF ATOMS
5
ITEM: BOX BOUNDS ff ff ff
-5.00000000    5.00000000     
-5.00000000    5.00000000     
-5.00000000    5.00000000     
ITEM: ATOMS id type q x y z mux muy muz
      1   1    1.0000      -1.202489      -4.553257       0.800067       0.506102      -0.193400       0.840510
      2   2   -1.0000       2.227183       2.559647      -2.955937      -0.676981       0.722133       0.142199
      3   1    1.0000      -0.947826      -2.893206       1.708041      -0.354683       0.881689       0.311166
      4   2   -1.0000      -3.035030       3.950627      -3.014320      -0.854033      -0.266541      -0.446748
      5   2   -1.0000      -2.231099       3.445492      -0.635383      -0.129718       0.259301      -0.957046
ITEM: TIMESTEP
900
ITEM: NUMBER OF ATOMS
5
ITEM: BOX BOUNDS ff ff ff
-5.00000000    5.00000000     
-5.00000000    5.00000000     
-5.00000000    5.00000000     
ITEM: ATOMS id type q x y z mux muy muz
      1   1    1.0000      -1.183935      -4.554012       0.786059       0.587195      -0.017786       0.809250
      2   2   -1.0000       2.229496       2.536658      -2.889398      -0.697567       0.703003       0.138521
      3   1    1.0000      -0.996543      -2.848717       1.719589      -0.284115       0.945320       0.160152
      4   2   -1.0000      -2.987670       3.939294      -3.054982      -0.864779      -0.304202      -0.399522
      5   2   -1.0000      -2.250609       3.436081      -0.658801      -0.239611       0.314253      -0.918603
ITEM: TIMESTEP
1000
ITEM: NUMBER OF ATOMS
5
ITEM: BOX BOUNDS ff ff ff
-5.00000000    5.00000000     
-5.00000000    5.00000000     
-5.00000000    5.00000000     
ITEM: ATOMS id type q x y z mux muy muz
      1   1    1.0000      -1.164750      -4.553791       0.772682       0.645638       0.147139       0.749334
      2   2   -1.0000       2.232119       2.513303      -2.822935      -0.719047       0.681884       0.134183
      3   1    1.0000      -1.045799      -2.804386       1.730034      -0.194191       0.980962       0.001743
      4   2   -1.0000      -2.940677       3.927996      -3.095556      -0.872115      -0.341511      -0.350408
      5   2   -1.0000      -2.270155       3.426181      -0.681758      -0.343290       0.367391      -0.864393
ITEM: TIMESTEP
1100
ITEM: NUMBER OF ATOMS
5
ITEM: BOX BOUNDS ff ff ff
-5.00000000    5.00000000     
-5.00000000    5.00000000     
-5.00000000    5.00000000     
ITEM: ATOMS id type q x y z mux muy muz
      1   1    1.0000      -1.145176      -4.552962       0.760249       0.682550       0.298955       0.666897
      2   2   -1.0000       2.235056       2.489536      -2.756441      -0.741673       0.658263       0.128883
      3   1    1.0000      -1.095385      -2.759744       1.739047      -0.090410       0.983949      -0.153853
      4   2   -1.0000      -2.894126       3.916780      -3.136146      -0.875639      -0.379664      -0.298515
      5   2   -1.0000      -2.289631       3.415694      -0.704241      -0.438235       0.418454      -0.795516
ITEM: TIMESTEP
1200
ITEM: NUMBER OF ATOMS
5
ITEM: BOX BOUNDS ff ff ff
-5.00000000    5.00000000     
-5.00000000    5.00000000     
-5.00000000    5.00000000     
ITEM: ATOMS id type q x y z mux muy muz
      1   1    1.0000      -1.125462      -4.552139       0.748861       0.699395       0.436099       0.566272
      2   2   -1.0000       2.238308       2.465339      -2.689896      -0.765761       0.631405       0.122221
      3   1    1.0000      -1.145047      -2.714140       1.746513       0.020916       0.954511      -0.297442
      4   2   -1.0000      -2.848130       3.905718      -3.176856      -0.874575      -0.420031      -0.242265
      5   2   -1.0000      -2.308932       3.404526      -0.726154      -0.522680       0.467693      -0.712789
ITEM: TIMESTEP
1300
ITEM: NUMBER OF ATOMS
5
ITEM: BOX BOUNDS ff ff ff
-5.00000000    5.00000000     
-5.00000000    5.00000000     
-5.00000000    5.00000000     
ITEM: ATOMS id type q x y z mux muy muz
      1   1    1.0000      -1.105808      -4.552051       0.738413       0.697696       0.557047       0.450464
      2   2   -1.0000       2.241868       2.440732      -2.623375      -0.791548       0.600436       0.113701
      3   1    1.0000      -1.194535      -2.666877       1.752535       0.133674       0.896802      -0.421756
      4   2   -1.0000      -2.802826       3.894908      -3.217773      -0.867515      -0.463859      -0.179591
      5   2   -1.0000      -2.327961       3.392592      -0.747333      -0.594895       0.515501      -0.616732
ITEM: TIMESTEP
1400
ITEM: NUMBER OF ATOMS
5
ITEM: BOX BOUNDS ff ff ff
-5.00000000    5.00000000     
-5.00000000    5.00000000     
-5.00000000    5.00000000     
ITEM: ATOMS id type q x y z mux muy muz
      1   1    1.0000      -1.086334      -4.553408       0.728639       0.678996       0.659859       0.321792
      2   2   -1.0000       2.245726       2.415772      -2.557037      -0.819027       0.564478       0.102759
      3   1    1.0000      -1.243642      -2.617349       1.757385       0.242621       0.817788      -0.521878
      4   2   -1.0000      -2.758362       3.884461      -3.258946      -0.852212      -0.511885      -0.108210
      5   2   -1.0000      -2.346650       3.379828      -0.767574      -0.652750       0.562116      -0.507881
ITEM: TIMESTEP
1500
ITEM: NUMBER OF ATOMS
5
ITEM: BOX BOUNDS ff ff ff
-5.00000000    5.00000000     
-5.00000000    5.00000000     
-5.00000000    5.00000000     
ITEM: ATOMS id type q x y z mux muy muz
      1   1    1.0000      -1.067084      -4.556778       0.719183       0.644948       0.742095       0.182585
      2   2   -1.0000       2.249863       2.390545      -2.491106      -0.847785       0.522850       0.088821
      3   1    1.0000      -1.292211      -2.565147       1.761438       0.343826       0.726123      -0.595423
      4   2   -1.0000      -2.714866       3.874494      -3.300381      -0.825495      -0.563806      -0.026089
      5   2   -1.0000      -2.364963       3.366190      -0.786666      -0.693628       0.607397      -0.387232
ITEM: TIMESTEP
1600
ITEM: NUMBER OF ATOMS
5
ITEM: BOX BOUNDS ff ff ff
-5.00000000    5.00000000     
-5.00000000    5.00000000     
-5.00000000    5.00000000     
ITEM: ATOMS id type q x y z mux muy muz
      1   1    1.0000      -1.048049      -4.562518       0.709667       0.597464       0.801098       0.035767
      2   2   -1.0000       2.254255       2.365152      -2.425823      -0.876921       0.475300       0.071410
      3   1    1.0000      -1.340133      -2.510103       1.765096       0.434912       0.630941      -0.642468
      4   2   -1.0000      -2.672426       3.865113      -3.342035      -0.783462      -0.617721       0.067880
      5   2   -1.0000      -2.382909       3.351660      -0.804438      -0.714672       0.650675      -0.256644
ITEM: TIMESTEP
1700
ITEM: NUMBER OF ATOMS
5
ITEM: BOX BOUNDS ff ff ff
-5.00000000    5.00000000     
-5.00000000    5.00000000     
-5.00000000    5.00000000     
ITEM: ATOMS id type q x y z mux muy muz
      1   1    1.0000      -1.029192      -4.570750       0.699756       0.538799       0.834566      -0.114866
      2   2   -1.0000       2.258879       2.339692      -2.361407      -0.905105       0.422208       0.050257
      3   1    1.0000      -1.387335      -2.452281       1.768723       0.515080       0.540597      -0.665167
      4   2   -1.0000      -2.631073       3.856399      -3.383817      -0.722097      -0.669782       0.173111
      5   2   -1.0000      -2.400540       3.336244      -0.820787      -0.713285       0.690694      -0.119024
ITEM: TIMESTEP
1800
ITEM: NUMBER OF ATOMS
5
ITEM: BOX BOUNDS ff ff ff
-5.00000000    5.00000000     
-5.00000000    5.00000000     
-5.00000000    5.00000000     
ITEM: ATOMS id type q x y z mux muy muz
      1   1    1.0000      -1.010474      -4.581391       0.689193       0.471501       0.841170      -0.264802
      2   2   -1.0000       2.263711       2.314248      -2.298018      -0.930805       0.364636       0.025363
      3   1    1.0000      -1.433779      -2.391914       1.772603       0.584822       0.461592      -0.667020
      4   2   -1.0000      -2.590780       3.848394      -3.425600      -0.638287      -0.714390       0.286769
      5   2   -1.0000      -2.417939       3.319966      -0.835710      -0.687696       0.725672       0.021792
ITEM: TIMESTEP
1900
ITEM: NUMBER OF ATOMS
5
ITEM: BOX BOUNDS ff ff ff
-5.00000000    5.00000000     
-5.00000000    5.00000000     
-5.00000000    5.00000000     
ITEM: ATOMS id type q x y z mux muy muz
      1   1    1.0000      -0.991867      -4.594212       0.677814       0.398202       0.820916      -0.409306
      2   2   -1.0000       2.268728       2.288877      -2.235737      -0.952613       0.304170      -0.003008
      3   1    1.0000      -1.479454      -2.329331       1.776923       0.645398       0.397998      -0.651965
      4   2   -1.0000      -2.551471       3.841101      -3.467234      -0.530946      -0.745044       0.403740
      5   2   -1.0000      -2.435198       3.302868      -0.849298      -0.637353       0.753480       0.161397
ITEM: TIMESTEP
2000
ITEM: NUMBER OF ATOMS
5
ITEM: BOX BOUNDS ff ff ff
-5.00000000    5.00000000     
-5.00000000    5.00000000     
-5.00000000    5.00000000     
ITEM: ATOMS id type q x y z mux muy muz
      1   1    1.0000      -0.973357      -4.608904       0.665536       0.321370       0.775119      -0.543978
      2   2   -1.0000       2.273916       2.263605      -2.174561      -0.969513       0.242608      -0.034428
      3   1    1.0000      -1.524372      -2.264880       1.781778       0.698258       0.351529      -0.623589
      4   2   -1.0000      -2.513057       3.834481      -3.508569      -0.401808      -0.755624       0.517284
      5   2   -1.0000      -2.452391       3.285002      -0.861717      -0.563038       0.771888       0.295257
ITEM: TIMESTEP
2100
ITEM: NUMBER OF ATOMS
5
ITEM: BOX BOUNDS ff ff ff
-5.00000000    5.00000000     
-5.00000000    5.00000000     
-5.00000000    5.00000000     
ITEM: ATOMS id type q x y z mux muy muz
      1   1    1.0000      -0.954942      -4.625134       0.652347       0.243119       0.706051      -0.665120
      2   2   -1.0000       2.279262       2.238431      -2.114419      -0.980983       0.181624      -0.068447
      3   1    1.0000      -1.568569      -2.198881       1.787186       0.744590       0.322079      -0.584681
      4   2   -1.0000      -2.475454       3.828466      -3.549481      -0.255516      -0.741682       0.620177
      5   2   -1.0000      -2.469558       3.266422      -0.873165      -0.466705       0.778824       0.419069
ITEM: TIMESTEP
2200
ITEM: NUMBER OF ATOMS
5
ITEM: BOX BOUNDS ff ff ff
-5.00000000    5.00000000     
-5.00000000    5.00000000     
-5.00000000    5.00000000     
ITEM: ATOMS id type q x y z mux muy muz
      1   1    1.0000      -0.936629      -4.642583       0.638278       0.165156       0.616528      -0.769816
      2   2   -1.0000       2.284756       2.213333      -2.055195      -0.986925       0.122534      -0.104708
      3   1    1.0000      -1.612093      -2.131599       1.793112       0.785086       0.308430      -0.537132
      4   2   -1.0000      -2.438606       3.822970      -3.589899      -0.099016      -0.701289       0.705967
      5   2   -1.0000      -2.486690       3.247183      -0.883827      -0.351157       0.772582       0.528966
ITEM: TIMESTEP
2300
ITEM: NUMBER OF ATOMS
5
ITEM: BOX BOUNDS ff ff ff
-5.00000000    5.00000000     
-5.00000000    5.00000000     
-5.00000000    5.00000000     
ITEM: ATOMS id type q x y z mux muy muz
      1   1    1.0000      -0.918426      -4.660965       0.623390       0.088850       0.509599      -0.855812
      2   2   -1.0000       2.290390       2.188279      -1.996749      -0.987505       0.066216      -0.143003
      3   1    1.0000      -1.655001      -2.063247       1.799485       0.819879       0.308867      -0.482079
      4   2   -1.0000      -2.402489       3.817905      -3.629822       0.059533      -0.635275       0.769988
      5   2   -1.0000      -2.503736       3.227333      -0.893835      -0.219699       0.751925       0.621563
ITEM: TIMESTEP
2400
ITEM: NUMBER OF ATOMS
5
ITEM: BOX BOUNDS ff ff ff
-5.00000000    5.00000000     
-5.00000000    5.00000000     
-5.00000000    5.00000000     
ITEM: ATOMS id type q x y z mux muy muz
      1   1    1.0000      -0.900347      -4.680035       0.607762       0.015366       0.388444      -0.921344
      2   2   -1.0000       2.296157       2.163232      -1.938940      -0.982972       0.013174      -0.183284
      3   1    1.0000      -1.697349      -1.993992       1.806213       0.848570       0.321562      -0.420151
      4   2   -1.0000      -2.367102       3.813186      -3.669326       0.211954      -0.546899       0.809924
      5   2   -1.0000      -2.520620       3.206913      -0.903241      -0.075849       0.716090       0.693874
ITEM: TIMESTEP
2500
ITEM: NUMBER OF ATOMS
5
ITEM: BOX BOUNDS ff ff ff
-5.00000000    5.00000000     
-5.00000000    5.00000000     
-5.00000000    5.00000000     
ITEM: ATOMS id type q x y z mux muy muz
      1   1    1.0000      -0.882404      -4.699586       0.591483      -0.054186       0.256438      -0.965041
      2   2   -1.0000       2.302046       2.138158      -1.881639      -0.973541      -0.036345      -0.225606
      3   1    1.0000      -1.739189      -1.923965       1.813195       0.870301       0.344749      -0.351746
      4   2   -1.0000      -2.332455       3.808744      -3.708556       0.351094      -0.441156       0.825902
      5   2   -1.0000      -2.537260       3.185954      -0.912015       0.076805       0.664705       0.743147
ITEM: TIMESTEP
2600
ITEM: NUMBER OF ATOMS
5
ITEM: BOX BOUNDS ff ff ff
-5.00000000    5.00000000     
-5.00000000    5.00000000     
-5.00000000    5.00000000     
ITEM: ATOMS id type q x y z mux muy muz
      1   1    1.0000      -0.864608      -4.719448       0.574644      -0.118665       0.117292      -0.985982
      2   2   -1.0000       2.308048       2.113030      -1.824740      -0.959327      -0.082207      -0.270061
      3   1    1.0000      -1.780564      -1.853284       1.820327       0.883846       0.376731      -0.277289
      4   2   -1.0000      -2.298548       3.804524      -3.747709       0.471537      -0.323941       0.820192
      5   2   -1.0000      -2.553590       3.164482      -0.920054       0.234555       0.597687       0.766651
ITEM: TIMESTEP
2700
ITEM: NUMBER OF ATOMS
5
ITEM: BOX BOUNDS ff ff ff
-5.00000000    5.00000000     
-5.00000000    5.00000000     
-5.00000000    5.00000000     
ITEM: ATOMS id type q x y z mux muy muz
      1   1    1.0000      -0.846972      -4.739480       0.557337      -0.176883      -0.024860      -0.983918
      2   2   -1.0000       2.314150       2.087830      -1.768164      -0.940351      -0.124280      -0.316692
      3   1    1.0000      -1.821504      -1.782052       1.827509       0.887753       0.415807      -0.197481
      4   2   -1.0000      -2.265363       3.800486      -3.787003       0.569955      -0.201233       0.796653
      5   2   -1.0000      -2.569572       3.142519      -0.927211       0.393306       0.515189       0.761505
ITEM: TIMESTEP
2800
ITEM: NUMBER OF ATOMS
5
ITEM: BOX BOUNDS ff ff ff
-5.00000000    5.00000000     
-5.00000000    5.00000000     
-5.00000000    5.00000000     
ITEM: ATOMS id type q x y z mux muy muz
      1   1    1.0000      -0.829505      -4.759569       0.539650      -0.227693      -0.165525      -0.959561
      2   2   -1.0000       2.320337       2.062549      -1.711859      -0.916579      -0.162362      -0.365407
      3   1    1.0000      -1.862030      -1.710368       1.834647       0.880545       0.460177      -0.113483
      4   2   -1.0000      -2.232854       3.796599      -3.826645       0.645109      -0.078423       0.760056
      5   2   -1.0000      -2.585209       3.120092      -0.933325       0.548109       0.417681       0.724652
ITEM: TIMESTEP
2900
ITEM: NUMBER OF ATOMS
5
ITEM: BOX BOUNDS ff ff ff
-5.00000000    5.00000000     
-5.00000000    5.00000000     
-5.00000000    5.00000000     
ITEM: ATOMS id type q x y z mux muy muz
      1   1    1.0000      -0.812216      -4.779625       0.521668      -0.270154      -0.300130      -0.914844
      2   2   -1.0000       2.326595       2.037186      -1.655795      -0.887999      -0.196149      -0.415912
      3   1    1.0000      -1.902155      -1.638326       1.841656       0.860995       0.507894      -0.027029
      4   2   -1.0000      -2.200949       3.792834      -3.866809       0.697585       0.040133       0.715378
      5   2   -1.0000      -2.600537       3.097235      -0.938251       0.692588       0.306212       0.653113
ITEM: TIMESTEP
3000
ITEM: NUMBER OF ATOMS
5
ITEM: BOX BOUNDS ff ff ff
-5.00000000    5.00000000     
-5.00000000    5.00000000     
-5.00000000    5.00000000     
ITEM: ATOMS id type q x y z mux muy muz
      1   1    1.0000      -0.795108      -4.799579       0.503463      -0.303712      -0.424493      -0.852974
      2   2   -1.0000       2.332909       2.011742      -1.599960      -0.854711      -0.225263      -0.467681
      3   1    1.0000      -1.941886      -1.566012       1.848464       0.828434       0.556907       0.059598
      4   2   -1.0000      -2.169556       3.789161      -3.907609       0.729347       0.151342       0.667195
      5   2   -1.0000      -2.615620       3.073991      -0.941889       0.818475       0.182889       0.544656
ITEM: TIMESTEP
3100
ITEM: NUMBER OF ATOMS
5
ITEM: BOX BOUNDS ff ff ff
-5.00000000    5.00000000     
-5.00000000    5.00000000     
-5.00000000    5.00000000     
ITEM: ATOMS id type q x y z mux muy muz
      1   1    1.0000      -0.778183      -4.819381       0.485100      -0.328349      -0.535336      -0.778204
      2   2   -1.0000       2.339263       1.986224      -1.544353      -0.816998      -0.249301      -0.519965
      3   1    1.0000      -1.981226      -1.493495       1.855014       0.782992       0.605195       0.143744
      4   2   -1.0000      -2.138577       3.785546      -3.949094       0.743215       0.253358       0.619226
      5   2   -1.0000      -2.630539       3.050409      -0.944198       0.915547       0.051459       0.398906
ITEM: TIMESTEP
3200
ITEM: NUMBER OF ATOMS
5
ITEM: BOX BOUNDS ff ff ff
-5.00000000    5.00000000     
-5.00000000    5.00000000     
-5.00000000    5.00000000     
ITEM: ATOMS id type q x y z mux muy muz
      1   1    1.0000      -0.761435      -4.838996       0.466631      -0.344610      -0.630697      -0.695317
      2   2   -1.0000       2.345648       1.960636      -1.488976      -0.775367      -0.267915      -0.571863
      3   1    1.0000      -2.020183      -1.420826       1.861258       0.725705       0.650969       0.222692
      4   2   -1.0000      -2.107917       3.781944      -3.991247       0.742364       0.345412       0.574096
      5   2   -1.0000      -2.645374       3.026545      -0.945198       0.972318      -0.082200       0.218723
ITEM: TIMESTEP
3300
ITEM: NUMBER OF ATOMS
5
ITEM: BOX BOUNDS ff ff ff
-5.00000000    5.00000000     
-5.00000000    5.00000000     
-5.00000000    5.00000000     
ITEM: ATOMS id type q x y z mux muy muz
      1   1    1.0000      -0.744856      -4.858404       0.448094      -0.353511      -0.710054      -0.608977
      2   2   -1.0000       2.352057       1.934977      -1.433827      -0.730535      -0.280880      -0.622435
      3   1    1.0000      -2.058766      -1.348028       1.867160       0.658404       0.692865       0.294009
      4   2   -1.0000      -2.077497       3.778307      -4.033993       0.729930       0.427532       0.533309
      5   2   -1.0000      -2.660200       3.002450      -0.944966       0.977640      -0.209975       0.011430
ITEM: TIMESTEP
3400
ITEM: NUMBER OF ATOMS
5
ITEM: BOX BOUNDS ff ff ff
-5.00000000    5.00000000     
-5.00000000    5.00000000     
-5.00000000    5.00000000     
ITEM: ATOMS id type q x y z mux muy muz
      1   1    1.0000      -0.728432      -4.877593       0.429517      -0.356344      -0.774163      -0.523154
      2   2   -1.0000       2.358489       1.909244      -1.378901      -0.683355      -0.288133      -0.670825
      3   1    1.0000      -2.096985      -1.275100       1.872689       0.583429       0.730065       0.355831
      4   2   -1.0000      -2.047265       3.774583      -4.077222       0.708752       0.500242       0.497421
      5   2   -1.0000      -2.675069       2.978169      -0.943616       0.922984      -0.322045      -0.210682
ITEM: TIMESTEP
3500
ITEM: NUMBER OF ATOMS
5
ITEM: BOX BOUNDS ff ff ff
-5.00000000    5.00000000     
-5.00000000    5.00000000     
-5.00000000    5.00000000     
ITEM: ATOMS id type q x y z mux muy muz
      1   1    1.0000      -0.712148      -4.896559       0.410919      -0.354459      -0.824669      -0.440772
      2   2   -1.0000       2.364951       1.883428      -1.324187      -0.634726      -0.289763      -0.716352
      3   1    1.0000      -2.134852      -1.202018       1.877820       0.503263       0.762294       0.406982
      4   2   -1.0000      -2.017197       3.770723      -4.120804       0.681253       0.564305       0.466320
      5   2   -1.0000      -2.690016       2.953729      -0.941279       0.804824      -0.408055      -0.430987
ITEM: TIMESTEP
3600
ITEM: NUMBER OF ATOMS
5
ITEM: BOX BOUNDS ff ff ff
-5.00000000    5.00000000     
-5.00000000    5.00000000     
-5.00000000    5.00000000     
ITEM: ATOMS id type q x y z mux muy muz
      1   1    1.0000      -0.695987      -4.915300       0.392310      -0.349088      -0.863652      -0.363651
      2   2   -1.0000       2.371458       1.857519      -1.269670      -0.585499      -0.285972      -0.758559
      3   1    1.0000      -2.172375      -1.128740       1.882521       0.420227       0.789729       0.446920
      4   2   -1.0000      -1.987300       3.766684      -4.164611       0.649426       0.620525       0.439540
      5   2   -1.0000      -2.705057       2.929140      -0.938082       0.626340      -0.458696      -0.630314
ITEM: TIMESTEP
3700
ITEM: NUMBER OF ATOMS
5
ITEM: BOX BOUNDS ff ff ff
-5.00000000    5.00000000     
-5.00000000    5.00000000     
-5.00000000    5.00000000     
ITEM: ATOMS id type q x y z mux muy muz
      1   1    1.0000      -0.679932      -4.933816       0.373698      -0.341250      -0.893253      -0.292655
      2   2   -1.0000       2.378030       1.831507      -1.215331      -0.536415      -0.277017      -0.797195
      3   1    1.0000      -2.209555      -1.055219       1.886759       0.336296       0.812852       0.475581
      4   2   -1.0000      -1.957608       3.762439      -4.208534       0.614881       0.669643       0.416533
      5   2   -1.0000      -2.720196       2.904392      -0.934123       0.397926      -0.467268      -0.789504
ITEM: TIMESTEP
3800
ITEM: NUMBER OF ATOMS
5
ITEM: BOX BOUNDS ff ff ff
-5.00000000    5.00000000     
-5.00000000    5.00000000     
-5.00000000    5.00000000     
ITEM: ATOMS id type q x y z mux muy muz
      1   1    1.0000      -0.663968      -4.952102       0.355089      -0.331716      -0.915423      -0.227959
      2   2   -1.0000       2.384692       1.805383      -1.161155      -0.488093      -0.263158      -0.832174
      3   1    1.0000      -2.246381      -0.981408       1.890491       0.253063       0.832307       0.493178
      4   2   -1.0000      -1.928173       3.757974      -4.252494       0.578914       0.712286       0.396871
      5   2   -1.0000      -2.735431       2.879456      -0.929464       0.136390      -0.430843      -0.892061
ITEM: TIMESTEP
3900
ITEM: NUMBER OF ATOMS
5
ITEM: BOX BOUNDS ff ff ff
-5.00000000    5.00000000     
-5.00000000    5.00000000     
-5.00000000    5.00000000     
ITEM: ATOMS id type q x y z mux muy muz