ITEM: TIMESTEP
0
ITEM: NUMBER OF ATOMS
5
ITEM: BOX BOUNDS ff ff ff
-5.00000000    5.00000000     
-5.00000000    5.00000000     
-5.00000000    5.00000000     
ITEM: ATOMS id type q x y z mux muy muz
      1   1    1.0000       3.238155      -3.968212       4.430728       0.217490      -0.972712       0.080799
      2   2   -1.0000       2.950707      -3.188019       2.120018      -0.246618      -0.905978      -0.344070
      3   1    1.0000      -1.150788      -0.976960       2.832885       0.487350      -0.596987      -0.637257
      4   2   -1.0000       4.627842      -3.733783      -0.793608      -0.736095       0.667411      -0.112813
      5   2   -1.0000      -0.190318      -1.236432      -1.368641      -0.558810      -0.629327       0.540073
ITEM: TIMESTEP
100
ITEM: NUMBER OF ATOMS
5
ITEM: BOX BOUNDS ff ff ff
-5.00000000    5.00000000     
-5.00000000    5.00000000     
-5.00000000    5.00000000     
ITEM: ATOMS id type q x y z mux muy muz
      1   1    1.0000       3.252017      -3.935660       4.482572       0.270322      -0.953899       0.130395
      2   2   -1.0000       2.948173      -3.240492       2.114227      -0.283382      -0.872212      -0.398674
      3   1    1.0000      -1.187939      -0.967623       2.830936       0.394529      -0.787568      -0.473374
      4   2   -1.0000       4.627288      -3.768217      -0.784646      -0.737075       0.665986      -0.114817
      5   2   -1.0000      -0.163941      -1.191414      -1.421707      -0.609003      -0.597628       0.521494
ITEM: TIMESTEP
200
ITEM: NUMBER OF ATOMS
5
ITEM: BOX BOUNDS ff ff ff
-5.00000000    5.00000000     
-5.00000000    5.00000000     
-5.00000000    5.00000000     
ITEM: ATOMS id type q x y z mux muy muz
      1   1    1.0000       3.265976      -3.902095       4.533788       0.327651      -0.930887       0.161535
      2   2   -1.0000       2.945072      -3.293680       2.109371      -0.315137      -0.823321      -0.472051
      3   1    1.0000      -1.224337      -0.958195       2.828410       0.277144      -0.919636      -0.278318
      4   2   -1.0000       4.626926      -3.803054      -0.775635      -0.736827       0.666222      -0.115042
      5   2   -1.0000      -0.138040      -1.146382      -1.474552      -0.659533      -0.564155       0.496735
ITEM: TIMESTEP
300
ITEM: NUMBER OF ATOMS
5
ITEM: BOX BOUNDS ff ff ff
-5.00000000    5.00000000     
-5.00000000    5.00000000     
-5.00000000    5.00000000     
ITEM: ATOMS id type q x y z mux muy muz
      1   1    1.0000       3.279949      -3.867481       4.584199       0.389139      -0.904836       0.172748
      2   2   -1.0000       2.941517      -3.347637       2.105628      -0.339485      -0.754167      -0.562123
      3   1    1.0000      -1.260022      -0.948675       2.825353       0.146402      -0.986760      -0.069790
      4   2   -1.0000       4.626760      -3.838273      -0.766596      -0.735322       0.668165      -0.113388
      5   2   -1.0000      -0.112606      -1.101340      -1.527203      -0.709878      -0.528384       0.465707
ITEM: TIMESTEP
400
ITEM: NUMBER OF ATOMS
5
ITEM: BOX BOUNDS ff ff ff
-5.00000000    5.00000000     
-5.00000000    5.00000000     
-5.00000000    5.00000000     
ITEM: ATOMS id type q x y z mux muy muz
      1   1    1.0000       3.293829      -3.831780       4.633589       0.453653      -0.876217       0.162613
      2   2   -1.0000       2.937650      -3.402420       2.103216      -0.353083      -0.659324      -0.663795
      3   1    1.0000      -1.295046      -0.939072       2.821811       0.014077      -0.990799       0.134605
      4   2   -1.0000       4.626788      -3.873850      -0.757552      -0.732570       0.671763      -0.109889
      5   2   -1.0000      -0.087623      -1.056284      -1.579682      -0.759148      -0.489990       0.428491
ITEM: TIMESTEP
500
ITEM: NUMBER OF ATOMS
5
ITEM: BOX BOUNDS ff ff ff
-5.00000000    5.00000000     
-5.00000000    5.00000000     
-5.00000000    5.00000000     
ITEM: ATOMS id type q x y z mux muy muz
      1   1    1.0000       3.307492      -3.794960       4.681698       0.519066      -0.844777       0.130087
      2   2   -1.0000       2.933631      -3.458085       2.102392      -0.352014      -0.534706      -0.768229
      3   1    1.0000      -1.329466      -0.929405       2.817828      -0.109538      -0.940947       0.320344
      4   2   -1.0000       4.627007      -3.909757      -0.748521      -0.728647       0.676837      -0.104720
      5   2   -1.0000      -0.063067      -1.011199      -1.632015      -0.806170      -0.448936       0.385416
ITEM: TIMESTEP
600
ITEM: NUMBER OF ATOMS
5
ITEM: BOX BOUNDS ff ff ff
-5.00000000    5.00000000     
-5.00000000    5.00000000     
-5.00000000    5.00000000     
ITEM: ATOMS id type q x y z mux muy muz
      1   1    1.0000       3.320796      -3.757017       4.728233       0.582209      -0.809581       0.074910
      2   2   -1.0000       2.929638      -3.514665       2.103460      -0.332659      -0.379632      -0.863260
      3   1    1.0000      -1.363349      -0.919696       2.813439      -0.217269      -0.850983       0.478145
      4   2   -1.0000       4.627417      -3.945971      -0.739518      -0.723715       0.683077      -0.098192
      5   2   -1.0000      -0.038904      -0.966058      -1.684234      -0.849687      -0.405490       0.337060
ITEM: TIMESTEP
700
ITEM: NUMBER OF ATOMS
5
ITEM: BOX BOUNDS ff ff ff
-5.00000000    5.00000000     
-5.00000000    5.00000000     
-5.00000000    5.00000000     
ITEM: ATOMS id type q x y z mux muy muz
      1   1    1.0000       3.333594      -3.717989       4.772877       0.639036      -0.769174      -0.002037
      2   2   -1.0000       2.925849      -3.572160       2.106759      -0.292860      -0.198415      -0.935342
      3   1    1.0000      -1.396765      -0.909969       2.808675      -0.305678      -0.735648       0.604469
      4   2   -1.0000       4.628016      -3.982469      -0.730555      -0.718030       0.690079      -0.090690
      5   2   -1.0000      -0.015096      -0.920819      -1.736375      -0.888588      -0.360116       0.284127
ITEM: TIMESTEP
800
ITEM: NUMBER OF ATOMS
5
ITEM: BOX BOUNDS ff ff ff
-5.00000000    5.00000000     
-5.00000000    5.00000000     
-5.00000000    5.00000000     
ITEM: ATOMS id type q x y z mux muy muz
      1   1    1.0000       3.345745      -3.677985       4.815316       0.684972      -0.721878      -0.098520
      2   2   -1.0000       2.922427      -3.630512       2.112634      -0.232829      -0.000495      -0.972518
      3   1    1.0000      -1.429790      -0.900245       2.803558      -0.374558      -0.607578       0.700397
      4   2   -1.0000       4.628812      -4.019239      -0.721640      -0.711919       0.697387      -0.082596
      5   2   -1.0000       0.008404      -0.875426      -1.788487      -0.922062      -0.313303       0.227252
ITEM: TIMESTEP
900
ITEM: NUMBER OF ATOMS
5
ITEM: BOX BOUNDS ff ff ff
-5.00000000    5.00000000     
-5.00000000    5.00000000     
-5.00000000    5.00000000     
ITEM: ATOMS id type q x y z mux muy muz
      1   1    1.0000       3.357132      -3.637186       4.855278       0.715373      -0.666152      -0.210908
      2   2   -1.0000       2.919507      -3.689597       2.121403      -0.155346       0.201148      -0.967164
      3   1    1.0000      -1.462505      -0.890541       2.798103      -0.425755      -0.475767       0.769661
      4   2   -1.0000       4.629818      -4.056274      -0.712777      -0.705761       0.704551      -0.074220
      5   2   -1.0000       0.031645      -0.829808      -1.840625      -0.949601      -0.265396       0.166802
ITEM: TIMESTEP
1000
ITEM: NUMBER OF ATOMS
5
ITEM: BOX BOUNDS ff ff ff
-5.00000000    5.00000000     
-5.00000000    5.00000000     
-5.00000000    5.00000000     
ITEM: ATOMS id type q x y z mux muy muz
      1   1    1.0000       3.367674      -3.595844       4.892569       0.726015      -0.600960      -0.334289
      2   2   -1.0000       2.917179      -3.749227       2.133311      -0.065153       0.392593      -0.917402
      3   1    1.0000      -1.494989      -0.880869       2.792318      -0.461960      -0.345549       0.816816
      4   2   -1.0000       4.631058      -4.093578      -0.703966      -0.699962       0.711146      -0.065758
      5   2   -1.0000       0.054675      -0.783888      -1.892850      -0.970861      -0.216493       0.102765
ITEM: TIMESTEP
1100
ITEM: NUMBER OF ATOMS
5
ITEM: BOX BOUNDS ff ff ff
-5.00000000    5.00000000     
-5.00000000    5.00000000     
-5.00000000    5.00000000     
ITEM: ATOMS id type q x y z mux muy muz
      1   1    1.0000       3.377337      -3.554264       4.927102       0.713563      -0.526049      -0.462709
      2   2   -1.0000       2.915479      -3.809163       2.148496       0.032129       0.561510      -0.826846
      3   1    1.0000      -1.527319      -0.871236       2.786205      -0.485855      -0.219442       0.846044
      4   2   -1.0000       4.632563      -4.131157      -0.695204      -0.694944       0.716779      -0.057281
      5   2   -1.0000       0.077538      -0.737587      -1.945218      -0.985443      -0.166423       0.034726
ITEM: TIMESTEP
1200
ITEM: NUMBER OF ATOMS
5
ITEM: BOX BOUNDS ff ff ff
-5.00000000    5.00000000     
-5.00000000    5.00000000     
-5.00000000    5.00000000     
ITEM: ATOMS id type q x y z mux muy muz
      1   1    1.0000       3.386136      -3.512767       4.958917       0.675986      -0.442141      -0.589537
      2   2   -1.0000       2.914388      -3.869142       2.166966       0.131105       0.698825      -0.703175
      3   1    1.0000      -1.559565      -0.861645       2.779762      -0.499682      -0.098208       0.860624
      4   2   -1.0000       4.634371      -4.169021      -0.686486      -0.691142       0.721073      -0.048748
      5   2   -1.0000       0.100268      -0.690831      -1.997778      -0.992659      -0.114802      -0.038053
ITEM: TIMESTEP
1300
ITEM: NUMBER OF ATOMS
5
ITEM: BOX BOUNDS ff ff ff
-5.00000000    5.00000000     
-5.00000000    5.00000000     
-5.00000000    5.00000000     
ITEM: ATOMS id type q x y z mux muy muz
      1   1    1.0000       3.394129      -3.471656       4.988173       0.612904      -0.350994      -0.707921
      2   2   -1.0000       2.913837      -3.928916       2.188597       0.227431       0.799286      -0.556252
      3   1    1.0000      -1.591782      -0.852099       2.772987      -0.505123       0.018229       0.862855
      4   2   -1.0000       4.636523      -4.207178      -0.677808      -0.689000       0.723655      -0.040031
      5   2   -1.0000       0.122892      -0.643558      -2.050567      -0.991309      -0.061123      -0.116492
ITEM: TIMESTEP
1400
ITEM: NUMBER OF ATOMS
5
ITEM: BOX BOUNDS ff ff ff
-5.00000000    5.00000000     
-5.00000000    5.00000000     
-5.00000000    5.00000000     
ITEM: ATOMS id type q x y z mux muy muz
      1   1    1.0000       3.401406      -3.431180       4.984125       0.525824      -0.255360      -0.811357
      2   2   -1.0000       2.913727      -3.988275       2.213156       0.318221       0.861147      -0.396435
      3   1    1.0000      -1.624016      -0.842598       2.765872      -0.503366       0.130108       0.854222
      4   2   -1.0000       4.639060      -4.245633      -0.669167      -0.688958       0.724140      -0.030944
      5   2   -1.0000       0.145420      -0.595719      -2.103602      -0.979485      -0.004905      -0.201456
ITEM: TIMESTEP
1500
ITEM: NUMBER OF ATOMS
5
ITEM: BOX BOUNDS ff ff ff
-5.00000000    5.00000000     
-5.00000000    5.00000000     
-5.00000000    5.00000000     
ITEM: ATOMS id type q x y z mux muy muz
      1   1    1.0000       3.408017      -3.391735       4.954594       0.418042      -0.158917      -0.894419
      2   2   -1.0000       2.913965      -4.046764       2.240238       0.401983       0.885324      -0.233691
      3   1    1.0000      -1.656141      -0.833189       2.758448      -0.495255       0.237433       0.835672
      4   2   -1.0000       4.642007      -4.284203      -0.660599      -0.691413       0.722146      -0.021313
      5   2   -1.0000       0.167750      -0.547515      -2.156629      -0.954445       0.054134      -0.293437
ITEM: TIMESTEP
1600
ITEM: NUMBER OF ATOMS
5
ITEM: BOX BOUNDS ff ff ff
-5.00000000    5.00000000     
-5.00000000    5.00000000     
-5.00000000    5.00000000     
ITEM: ATOMS id type q x y z mux muy muz
      1   1    1.0000       3.414022      -3.353560       4.923184       0.294528      -0.065849      -0.953371
      2   2   -1.0000       2.914469      -4.104111       2.269437       0.478649       0.874642      -0.076793
      3   1    1.0000      -1.688094      -0.823899       2.750728      -0.481453       0.339834       0.807908
      4   2   -1.0000       4.645383      -4.322783      -0.652117      -0.696670       0.717307      -0.010999
      5   2   -1.0000       0.189819      -0.499054      -2.209499      -0.912558       0.115888      -0.392182
ITEM: TIMESTEP
1700
ITEM: NUMBER OF ATOMS
5
ITEM: BOX BOUNDS ff ff ff
-5.00000000    5.00000000     
-5.00000000    5.00000000     
-5.00000000    5.00000000     
ITEM: ATOMS id type q x y z mux muy muz
      1   1    1.0000       3.419505      -3.316652       4.890204       0.161742       0.019684      -0.986637
      2   2   -1.0000       2.915159      -4.160350       2.300429       0.549339       0.832891       0.067224
      3   1    1.0000      -1.719922      -0.814719       2.742698      -0.462623       0.436425       0.771695
      4   2   -1.0000       4.649213      -4.361412      -0.643704      -0.704876       0.709330       0.000086
      5   2   -1.0000       0.211643      -0.450274      -2.262250      -0.849524       0.179516      -0.496067
ITEM: TIMESTEP
1800
ITEM: NUMBER OF ATOMS
5
ITEM: BOX BOUNDS ff ff ff
-5.00000000    5.00000000     
-5.00000000    5.00000000     
-5.00000000    5.00000000     
ITEM: ATOMS id type q x y z mux muy muz
      1   1    1.0000       3.424535      -3.280935       4.855943       0.026885       0.094136      -0.995196
      2   2   -1.0000       2.915976      -4.215577       2.332912       0.615755       0.763918       0.193065
      3   1    1.0000      -1.751653      -0.805644       2.734341      -0.439584       0.525922       0.728129
      4   2   -1.0000       4.653512      -4.400117      -0.635344      -0.715942       0.698058       0.011933
      5   2   -1.0000       0.233227      -0.401133      -2.314898      -0.760992       0.243115      -0.601486
ITEM: TIMESTEP
1900
ITEM: NUMBER OF ATOMS
5
ITEM: BOX BOUNDS ff ff ff
-5.00000000    5.00000000     
-5.00000000    5.00000000     
-5.00000000    5.00000000     
ITEM: ATOMS id type q x y z mux muy muz
      1   1    1.0000       3.429153      -3.246284       4.820630      -0.103151       0.155122      -0.982495
      2   2   -1.0000       2.916891      -4.269920       2.366641       0.679426       0.670995       0.296893
      3   1    1.0000      -1.783300      -0.796675       2.725644      -0.413373       0.606960       0.678765
      4   2   -1.0000       4.658287      -4.438911      -0.627022      -0.729505       0.683540       0.024414
      5   2   -1.0000       0.254567      -0.351616      -2.367437      -0.643647       0.303561      -0.702545
ITEM: TIMESTEP
2000
ITEM: NUMBER OF ATOMS
5
ITEM: BOX BOUNDS ff ff ff
-5.00000000    5.00000000     
-5.00000000    5.00000000     
-5.00000000    5.00000000     
ITEM: ATOMS id type q x y z mux muy muz
      1   1    1.0000       3.433360      -3.212559       4.784415      -0.222830       0.201721      -0.953759
      2   2   -1.0000       2.917913      -4.323511       2.401451       0.740899       0.556575       0.375891
      3   1    1.0000      -1.814856      -0.787817       2.716594      -0.385201       0.678479       0.625529
      4   2   -1.0000       4.663534      -4.477787      -0.618725      -0.744955       0.666072       0.037281
      5   2   -1.0000       0.275647      -0.301732      -2.419832      -0.496554       0.356656      -0.791348
ITEM: TIMESTEP
2100
ITEM: NUMBER OF ATOMS
5
ITEM: BOX BOUNDS ff ff ff
-5.00000000    5.00000000     
-5.00000000    5.00000000     
-5.00000000    5.00000000     
ITEM: ATOMS id type q x y z mux muy muz
      1   1    1.0000       3.437126      -3.179644       4.747350      -0.328623       0.234382      -0.914916
      2   2   -1.0000       2.919088      -4.376443       2.437273       0.799037       0.422492       0.427832
      3   1    1.0000      -1.846298      -0.779079       2.707181      -0.356298       0.740021       0.570457
      4   2   -1.0000       4.669236      -4.516724      -0.610439      -0.761530       0.646182       0.050204
      5   2   -1.0000       0.296446      -0.251516      -2.472030      -0.322301       0.397684      -0.859052
ITEM: TIMESTEP
2200
ITEM: NUMBER OF ATOMS
5
ITEM: BOX BOUNDS ff ff ff
-5.00000000    5.00000000     
-5.00000000    5.00000000     
-5.00000000    5.00000000     
ITEM: ATOMS id type q x y z mux muy muz
      1   1    1.0000       3.440391      -3.147474       4.709389      -0.419086       0.254492      -0.871551
      2   2   -1.0000       2.920494      -4.428752       2.474134       0.850619       0.270572       0.450819
      3   1    1.0000      -1.877594      -0.770470       2.697397      -0.327732       0.791823       0.515371
      4   2   -1.0000       4.675369      -4.555688      -0.602152      -0.778446       0.624560       0.062826
      5   2   -1.0000       0.316938      -0.201022      -2.523963      -0.127366       0.422275      -0.897475
ITEM: TIMESTEP
2300
ITEM: NUMBER OF ATOMS
5
ITEM: BOX BOUNDS ff ff ff
-5.00000000    5.00000000     
-5.00000000    5.00000000     
-5.00000000    5.00000000     
ITEM: ATOMS id type q x y z mux muy muz
      1   1    1.0000       3.443079      -3.116065       4.670395      -0.494429       0.263792      -0.828223
      2   2   -1.0000       2.922227      -4.480384       2.512148       0.890374       0.103508       0.443306
      3   1    1.0000      -1.908708      -0.762002       2.687239      -0.300290       0.834690       0.461648
      4   2   -1.0000       4.681899      -4.594640      -0.593851      -0.795018       0.601955       0.074816
      5   2   -1.0000       0.337101      -0.150314      -2.575560       0.078539       0.427263      -0.900710
ITEM: TIMESTEP
2400
ITEM: NUMBER OF ATOMS
5
ITEM: BOX BOUNDS ff ff ff
-5.00000000    5.00000000     
-5.00000000    5.00000000     
-5.00000000    5.00000000     
ITEM: ATOMS id type q x y z mux muy muz
      1   1    1.0000       3.445110      -3.085525       4.630160      -0.555874       0.263842      -0.788284
      2   2   -1.0000       2.924389      -4.531191       2.551504       0.911532      -0.074244       0.404472
      3   1    1.0000      -1.939604      -0.753685       2.676708      -0.274434       0.869755       0.410138
      4   2   -1.0000       4.688786      -4.633541      -0.585523      -0.810727       0.579086       0.085918
      5   2   -1.0000       0.356916      -0.099464      -2.626753       0.283946       0.411257      -0.866165
ITEM: TIMESTEP
2500
ITEM: NUMBER OF ATOMS
5
ITEM: BOX BOUNDS ff ff ff
-5.00000000    5.00000000     
-5.00000000    5.00000000     
-5.00000000    5.00000000     
ITEM: ATOMS id type q x y z mux muy muz
      1   1    1.0000       3.446421      -3.056069       4.588425      -0.605068       0.255673      -0.754005
      2   2   -1.0000       2.927072      -4.580919       2.592438       0.906866      -0.255851       0.334864
      3   1    1.0000      -1.970254      -0.745523       2.665807      -0.250349       0.898245       0.361222
      4   2   -1.0000       4.695986      -4.672356      -0.577158      -0.825236       0.556576       0.095957
      5   2   -1.0000       0.376373      -0.048538      -2.677486       0.477387       0.374757      -0.794770
ITEM: TIMESTEP
2600
ITEM: NUMBER OF ATOMS
5
ITEM: BOX BOUNDS ff ff ff
-5.00000000    5.00000000     
-5.00000000    5.00000000     
-5.00000000    5.00000000     
ITEM: ATOMS id type q x y z mux muy muz
      1   1    1.0000       3.446972      -3.028017       4.544911      -0.643654       0.239626      -0.726835
      2   2   -1.0000       2.930342      -4.629213       2.635211       0.870105      -0.432085       0.237107
      3   1    1.0000      -2.000636      -0.737519       2.654542      -0.228016       0.921318       0.314932
      4   2   -1.0000       4.703451      -4.711057      -0.568749      -0.838371       0.534922       0.104850
      5   2   -1.0000       0.395469       0.002400      -2.727717       0.648864       0.319862      -0.690409
ITEM: TIMESTEP
2700
ITEM: NUMBER OF ATOMS
5
ITEM: BOX BOUNDS ff ff ff
-5.00000000    5.00000000     
-5.00000000    5.00000000     
-5.00000000    5.00000000     
ITEM: ATOMS id type q x y z mux muy muz
      1   1    1.0000       3.446763      -3.001785       4.499349      -0.673017       0.215335      -0.707587
      2   2   -1.0000       2.934229      -4.675627       2.680079       0.797442      -0.592065       0.116384
      3   1    1.0000      -2.030737      -0.729668       2.642925      -0.207294       0.939972       0.271076
      4   2   -1.0000       4.711134      -4.749625      -0.560292      -0.850078       0.514481       0.112593
      5   2   -1.0000       0.414208       0.053299      -2.777416       0.790717       0.249742      -0.558924
ITEM: TIMESTEP
2800
ITEM: NUMBER OF ATOMS
5
ITEM: BOX BOUNDS ff ff ff
-5.00000000    5.00000000     
-5.00000000    5.00000000     
-5.00000000    5.00000000     
ITEM: ATOMS id type q x y z mux muy muz
      1   1    1.0000       3.445838      -2.977868       4.451514      -0.694121       0.181815      -0.696520
      2   2   -1.0000       2.938718      -4.719643       2.727257       0.688773      -0.724713      -0.019575
      3   1    1.0000      -2.060552      -0.721964       2.630967      -0.187983       0.955020       0.229345
      4   2   -1.0000       4.718991      -4.788044      -0.551792      -0.860394       0.495481       0.119250
      5   2   -1.0000       0.432602       0.104113      -2.826568       0.897810       0.168067      -0.407051
ITEM: TIMESTEP
2900
ITEM: NUMBER OF ATOMS
5
ITEM: BOX BOUNDS ff ff ff
-5.00000000    5.00000000     
-5.00000000    5.00000000     
-5.00000000    5.00000000     
ITEM: ATOMS id type q x y z mux muy muz
      1   1    1.0000       3.444283      -2.956818       4.401249      -0.707391       0.137624      -0.693294
      2   2   -1.0000       2.943754      -4.760693       2.776900       0.548285      -0.820621      -0.161134
      3   1    1.0000      -2.090080      -0.714396       2.618687      -0.169875       0.967096       0.189389
      4   2   -1.0000       4.726977      -4.826303      -0.543258      -0.869412       0.478032       0.124932
      5   2   -1.0000       0.450664       0.154804      -2.875166       0.967197       0.078555      -0.241574
ITEM: TIMESTEP
3000
ITEM: NUMBER OF ATOMS
5
ITEM: BOX BOUNDS ff ff ff
-5.00000000    5.00000000     
-5.00000000    5.00000000     
-5.00000000    5.00000000     
ITEM: ATOMS id type q x y z mux muy muz
      1   1    1.0000       3.442219      -2.939218       4.348488      -0.712617       0.081103      -0.696850
      2   2   -1.0000       2.949240      -4.798181       2.829076       0.384179      -0.873862      -0.297946
      3   1    1.0000      -2.119322      -0.706952       2.606105      -0.152776       0.976677       0.150871
      4   2   -1.0000       4.735053      -4.864389      -0.534707      -0.877257       0.462143       0.129783
      5   2   -1.0000       0.468408       0.205333      -2.923206       0.997509      -0.015283      -0.068860
ITEM: TIMESTEP
3100
ITEM: NUMBER OF ATOMS
5
ITEM: BOX BOUNDS ff ff ff
-5.00000000    5.00000000     
-5.00000000    5.00000000     
-5.00000000    5.00000000     
ITEM: ATOMS id type q x y z mux muy muz
      1   1    1.0000       3.439796      -2.925661       4.293267      -0.708880       0.010703      -0.705248
      2   2   -1.0000       2.955051      -4.831509       2.883755       0.207534      -0.883270      -0.420433
      3   1    1.0000      -2.148278      -0.699619       2.593245      -0.136531       0.984112       0.113504
      4   2   -1.0000       4.743181      -4.902279      -0.526159      -0.884071       0.447744       0.133956
      5   2   -1.0000       0.485848       0.255662      -2.970681       0.988323      -0.110190       0.105240
ITEM: TIMESTEP
3200
ITEM: NUMBER OF ATOMS
5
ITEM: BOX BOUNDS ff ff ff
-5.00000000    5.00000000     
-5.00000000    5.00000000     
-5.00000000    5.00000000     
ITEM: ATOMS id type q x y z mux muy muz
      1   1    1.0000       3.437175      -2.916725       4.235730      -0.694575      -0.074575      -0.715545
      2   2   -1.0000       2.961046      -4.860095       2.940804       0.030564      -0.852880      -0.521211
      3   1    1.0000      -2.176940      -0.692383       2.580138      -0.121025       0.989652       0.077079
      4   2   -1.0000       4.751327      -4.939944      -0.517642      -0.889997       0.434710       0.137596
      5   2   -1.0000       0.502990       0.305741      -3.017576       0.939703      -0.203054       0.275186
ITEM: TIMESTEP
3300
ITEM: NUMBER OF ATOMS
5
ITEM: BOX BOUNDS ff ff ff
-5.00000000    5.00000000     
-5.00000000    5.00000000     
-5.00000000    5.00000000     
ITEM: ATOMS id type q x y z mux muy muz
      1   1    1.0000       3.434515      -2.912960       4.176122      -0.667578      -0.174638      -0.723769
      2   2   -1.0000       2.967080      -4.883381       2.999986      -0.135323      -0.791424      -0.596101
      3   1    1.0000      -2.205290      -0.685238       2.566819      -0.106183       0.993481       0.041489
      4   2   -1.0000       4.759458      -4.977338      -0.509180      -0.895175       0.422884       0.140820
      5   2   -1.0000       0.519835       0.355511      -3.063866       0.852025      -0.290698       0.435371
ITEM: TIMESTEP
3400
ITEM: NUMBER OF ATOMS
5
ITEM: BOX BOUNDS ff ff ff
-5.00000000    5.00000000     
-5.00000000    5.00000000     
-5.00000000    5.00000000     
ITEM: ATOMS id type q x y z mux muy muz
      1   1    1.0000       3.431964      -2.914881       4.114783      -0.625644      -0.287716      -0.725114
      2   2   -1.0000       2.973019      -4.900842       3.060970      -0.281219      -0.711012      -0.644498
      3   1    1.0000      -2.233302      -0.678176       2.553331      -0.091973       0.995739       0.006742
      4   2   -1.0000       4.767542      -4.985597      -0.500801      -0.899732       0.412105       0.143704
      5   2   -1.0000       0.536374       0.404894      -3.109510       0.726165      -0.369643       0.579697
ITEM: TIMESTEP
3500
ITEM: NUMBER OF ATOMS
5
ITEM: BOX BOUNDS ff ff ff
-5.00000000    5.00000000     
-5.00000000    5.00000000     
-5.00000000    5.00000000     
ITEM: ATOMS id type q x y z mux muy muz
      1   1    1.0000       3.429639      -2.922966       4.052137      -0.567048      -0.409891      -0.714455
      2   2   -1.0000       2.978749      -4.911978       3.123338      -0.401765      -0.625311      -0.669008
      3   1    1.0000      -2.260929      -0.671198       2.539723      -0.078386       0.996557      -0.027027
      4   2   -1.0000       4.775549      -4.948931      -0.492529      -0.903784       0.402221       0.146262
      5   2   -1.0000       0.552589       0.453796      -3.154446       0.564073      -0.435939       0.701269
ITEM: TIMESTEP
3600
ITEM: NUMBER OF ATOMS
5
ITEM: BOX BOUNDS ff ff ff
-5.00000000    5.00000000     
-5.00000000    5.00000000     
-5.00000000    5.00000000     
ITEM: ATOMS id type q x y z mux muy muz
      1   1    1.0000       3.427625      -2.937669       3.988683      -0.491426      -0.535025      -0.687203
      2   2   -1.0000       2.984189      -4.916304       3.186589      -0.495319      -0.547612      -0.674373
      3   1    1.0000      -2.288105      -0.664312       2.526053      -0.065432       0.996078      -0.059566
      4   2   -1.0000       4.783442      -4.912740      -0.484387      -0.907428       0.393120       0.148425
      5   2   -1.0000       0.568447       0.502091      -3.198589       0.369702      -0.485188       0.792410
ITEM: TIMESTEP
3700
ITEM: NUMBER OF ATOMS
5
ITEM: BOX BOUNDS ff ff ff
-5.00000000    5.00000000     
-5.00000000    5.00000000     
-5.00000000    5.00000000     
ITEM: ATOMS id type q x y z mux muy muz
      1   1    1.0000       3.425950      -2.959444       3.924998      -0.400560      -0.655362      -0.640353
      2   2   -1.0000       2.989305      -4.913317       3.250140      -0.563233      -0.489201      -0.665921
      3   1    1.0000      -2.314740      -0.657536       2.512391      -0.053125       0.994476      -0.090530
      4   2   -1.0000       4.791183      -4.877135      -0.476395      -0.910738       0.384757       0.150064
      5   2   -1.0000       0.583900       0.549621      -3.241818       0.150029      -0.512876       0.845251
ITEM: TIMESTEP
3800
ITEM: NUMBER OF ATOMS
5
ITEM: BOX BOUNDS ff ff ff
-5.00000000    5.00000000     
-5.00000000    5.00000000     
-5.00000000    5.00000000     
ITEM: ATOMS id type q x y z mux muy muz
      1   1    1.0000       3.424573      -2.988769       3.861740      -0.298730      -0.762873      -0.573398
      2   2   -1.0000       2.994127      -4.902460       3.313318      -0.608458      -0.458193      -0.647949
      3   1    1.0000      -2.340713      -0.650895       2.498818      -0.041468       0.991962      -0.119547
      4   2   -1.0000       4.798727      -4.842267      -0.468577      -0.913756       0.377156       0.151007
      5   2   -1.0000       0.598883       0.596181      -3.283968      -0.084270      -0.515102       0.852976
ITEM: TIMESTEP
3900
ITEM: NUMBER OF ATOMS
5
ITEM: BOX BOUNDS ff ff ff
-5.00000000    5.00000000     
-5.00000000    5.00000000     
-5.00000000    5.00000000     
ITEM: ATOMS id type q x y z mux muy muz