ITEM: TIMESTEP
0
ITEM: NUMBER OF ATOMS
5
ITEM: BOX BOUNDS ff ff ff
-5.00000000    5.00000000     
-5.00000000    5.00000000     
-5.00000000    5.00000000     
ITEM: ATOMS id type q x y z mux muy muz
      1   1    1.0000       2.892691      -0.751778      -2.306295      -0.854822       0.465119      -0.230095
      2   2   -1.0000       3.620076       0.968709       0.915471      -0.985439       0.163995      -0.044888
      3   1    1.0000       1.107875       2.188200      -1.869951      -0.479141      -0.873367       0.087486
      4   2   -1.0000      -4.661326       3.105717      -3.710607      -0.580351       0.092103       0.809142
      5   2   -1.0000       2.218485      -4.176692      -1.247287      -0.289794       0.189773      -0.938086
ITEM: TIMESTEP
100
ITEM: NUMBER OF ATOMS
5
ITEM: BOX BOUNDS ff ff ff
-5.00000000    5.00000000     
-5.00000000    5.00000000     
-5.00000000    5.00000000     
ITEM: ATOMS id type q x y z mux muy muz
      1   1    1.0000       2.899507      -0.769550      -2.277658      -0.854121       0.465442      -0.232036
      2   2   -1.0000       3.596509       1.011478       0.952071      -0.987301       0.154471      -0.037093
      3   1    1.0000       1.072705       2.168983      -1.932791      -0.492454      -0.865321       0.093323
      4   2   -1.0000      -4.638090       3.084260      -3.676321      -0.510752       0.398003       0.762054
      5   2   -1.0000       2.247171      -4.161015      -1.283971      -0.289368       0.202528      -0.935547
ITEM: TIMESTEP
200
ITEM: NUMBER OF ATOMS
5
ITEM: BOX BOUNDS ff ff ff
-5.00000000    5.00000000     
-5.00000000    5.00000000     
-5.00000000    5.00000000     
ITEM: ATOMS id type q x y z mux muy muz
      1   1    1.0000       2.907663      -0.788766      -2.248822      -0.856331       0.462415      -0.229935
      2   2   -1.0000       3.572482       1.054303       0.988069      -0.989212       0.144960      -0.021107
      3   1    1.0000       1.036764       2.150932      -1.994972      -0.511520      -0.853105       0.102758
      4   2   -1.0000      -4.614611       3.062795      -3.642042      -0.392193       0.663693       0.636943
      5   2   -1.0000       2.275504      -4.145108      -1.320902      -0.288201       0.209828      -0.934298
ITEM: TIMESTEP
300
ITEM: NUMBER OF ATOMS
5
ITEM: BOX BOUNDS ff ff ff
-5.00000000    5.00000000     
-5.00000000    5.00000000     
-5.00000000    5.00000000     
ITEM: ATOMS id type q x y z mux muy muz
      1   1    1.0000       2.917154      -0.809367      -2.219743      -0.861386       0.456136      -0.223505
      2   2   -1.0000       3.548024       1.097124       1.023429      -0.990768       0.135539       0.002702
      3   1    1.0000       1.000054       2.134018      -2.056496      -0.536078      -0.836248       0.115372
      4   2   -1.0000      -4.590889       3.041355      -3.607806      -0.237187       0.862476       0.447078
      5   2   -1.0000       2.303458      -4.128974      -1.358053      -0.286343       0.211796      -0.934425
ITEM: TIMESTEP
400
ITEM: NUMBER OF ATOMS
5
ITEM: BOX BOUNDS ff ff ff
-5.00000000    5.00000000     
-5.00000000    5.00000000     
-5.00000000    5.00000000     
ITEM: ATOMS id type q x y z mux muy muz
      1   1    1.0000       2.927968      -0.831287      -2.190369      -0.869155       0.446623      -0.212361
      2   2   -1.0000       3.523163       1.139884       1.058117      -0.991415       0.126261       0.033980
      3   1    1.0000       0.962588       2.118199      -2.117364      -0.565676      -0.814193       0.130769
      4   2   -1.0000      -4.566928       3.019971      -3.573651      -0.061909       0.975231       0.212351
      5   2   -1.0000       2.331011      -4.112611      -1.395402      -0.283799       0.208474      -0.935947
ITEM: TIMESTEP
500
ITEM: NUMBER OF ATOMS
5
ITEM: BOX BOUNDS ff ff ff
-5.00000000    5.00000000     
-5.00000000    5.00000000     
-5.00000000    5.00000000     
ITEM: ATOMS id type q x y z mux muy muz
      1   1    1.0000       2.940086      -0.854451      -2.160645      -0.879422       0.433805      -0.196035
      2   2   -1.0000       3.497921       1.182528       1.092103      -0.990471       0.117178       0.072358
      3   1    1.0000       0.924391       2.103421      -2.177576      -0.599664      -0.786340       0.148567
      4   2   -1.0000      -4.542735       2.998670      -3.539618       0.115752       0.992338      -0.043196
      5   2   -1.0000       2.358139      -4.096012      -1.432933      -0.280534       0.199820      -0.938815
ITEM: TIMESTEP
600
ITEM: NUMBER OF ATOMS
5
ITEM: BOX BOUNDS ff ff ff
-5.00000000    5.00000000     
-5.00000000    5.00000000     
-5.00000000    5.00000000     
ITEM: ATOMS id type q x y z mux muy muz
      1   1    1.0000       2.953483      -0.878781      -2.130513      -0.891859       0.417507      -0.173997
      2   2   -1.0000       3.472318       1.225005       1.125361      -0.987156       0.108339       0.117413
      3   1    1.0000       0.885500       2.089622      -2.237133      -0.637186      -0.752094       0.168373
      4   2   -1.0000      -4.518318       2.977471      -3.505748       0.278249       0.914339      -0.294215
      5   2   -1.0000       2.384819      -4.079161      -1.470637      -0.276466       0.185709      -0.942910
ITEM: TIMESTEP
700
ITEM: NUMBER OF ATOMS
5
ITEM: BOX BOUNDS ff ff ff
-5.00000000    5.00000000     
-5.00000000    5.00000000     
-5.00000000    5.00000000     
ITEM: ATOMS id type q x y z mux muy muz
      1   1    1.0000       2.968129      -0.904200      -2.099917      -0.905987       0.397446      -0.145689
      2   2   -1.0000       3.446370       1.267267       1.157871      -0.980614       0.099808       0.168625
      3   1    1.0000       0.845960       2.076737      -2.296034      -0.677182      -0.710923       0.189769
      4   2   -1.0000      -4.493689       2.956386      -3.472078       0.410271       0.751342      -0.516879
      5   2   -1.0000       2.411031      -4.062034      -1.508510      -0.271468       0.165939      -0.948034
ITEM: TIMESTEP
800
ITEM: NUMBER OF ATOMS
5
ITEM: BOX BOUNDS ff ff ff
-5.00000000    5.00000000     
-5.00000000    5.00000000     
-5.00000000    5.00000000     
ITEM: ATOMS id type q x y z mux muy muz
      1   1    1.0000       2.983991      -0.930636      -2.068802      -0.921131       0.373219      -0.110567
      2   2   -1.0000       3.420090       1.309268       1.189615      -0.969958       0.091663       0.225341
      3   1    1.0000       0.805830       2.064699      -2.354279      -0.718413      -0.662432       0.212291
      4   2   -1.0000      -4.468863       2.935419      -3.438645       0.500234       0.521368      -0.691333
      5   2   -1.0000       2.436754      -4.044593      -1.546557      -0.265370       0.140238      -0.953893
ITEM: TIMESTEP
900
ITEM: NUMBER OF ATOMS
5
ITEM: BOX BOUNDS ff ff ff
-5.00000000    5.00000000     
-5.00000000    5.00000000     
-5.00000000    5.00000000     
ITEM: ATOMS id type q x y z mux muy muz
      1   1    1.0000       3.001029      -0.958028      -2.037117      -0.936379       0.344308      -0.068160
      2   2   -1.0000       3.393488       1.350964       1.220579      -0.954320       0.083997       0.286738
      3   1    1.0000       0.765171       2.053445      -2.411867      -0.759495      -0.606420       0.235420
      4   2   -1.0000      -4.443853       2.914566      -3.405479       0.541238       0.247919      -0.803491
      5   2   -1.0000       2.461966      -4.026791      -1.584785      -0.257958       0.108286      -0.960069
ITEM: TIMESTEP
1000
ITEM: NUMBER OF ATOMS
5
ITEM: BOX BOUNDS ff ff ff
-5.00000000    5.00000000     
-5.00000000    5.00000000     
-5.00000000    5.00000000     
ITEM: ATOMS id type q x y z mux muy muz
      1   1    1.0000       3.019201      -0.986327      -2.004818      -0.950535       0.310088      -0.018151
      2   2   -1.0000       3.366575       1.392312       1.250755      -0.932906       0.076922       0.351809
      3   1    1.0000       0.724055       2.042918      -2.468798      -0.798963      -0.542949       0.258582
      4   2   -1.0000      -4.418675       2.893813      -3.372606       0.531408      -0.042863      -0.846031
      5   2   -1.0000       2.486646      -4.008560      -1.623202      -0.248983       0.069735      -0.965994
ITEM: TIMESTEP
1100
ITEM: NUMBER OF ATOMS
5
ITEM: BOX BOUNDS ff ff ff
-5.00000000    5.00000000     
-5.00000000    5.00000000     
-5.00000000    5.00000000     
ITEM: ATOMS id type q x y z mux muy muz
      1   1    1.0000       3.038459      -1.015507      -1.971872      -0.962088       0.269858       0.039532
      2   2   -1.0000       3.339362       1.433266       1.280133      -0.905070       0.070563       0.419368
      3   1    1.0000       0.682554       2.033067      -2.525071      -0.835349      -0.472379       0.281159
      4   2   -1.0000      -4.393343       2.873143      -3.340042       0.473648      -0.325037      -0.818540
      5   2   -1.0000       2.510771      -3.989814      -1.661817      -0.238171       0.024248      -0.970920
ITEM: TIMESTEP
1200
ITEM: NUMBER OF ATOMS
5
ITEM: BOX BOUNDS ff ff ff
-5.00000000    5.00000000     
-5.00000000    5.00000000     
-5.00000000    5.00000000     
ITEM: ATOMS id type q x y z mux muy muz
      1   1    1.0000       3.058744      -1.045566      -1.938261      -0.969216       0.222887       0.104600
      2   2   -1.0000       3.311865       1.473778       1.308706      -0.870372       0.065052       0.488079
      3   1    1.0000       0.640741       2.023852      -2.580684      -0.867268      -0.395392       0.302509
      4   2   -1.0000      -4.367867       2.852533      -3.307799       0.374904      -0.575381      -0.726900
      5   2   -1.0000       2.534318      -3.970441      -1.700632      -0.225238      -0.028450      -0.973888
ITEM: TIMESTEP
1300
ITEM: NUMBER OF ATOMS
5
ITEM: BOX BOUNDS ff ff ff
-5.00000000    5.00000000     
-5.00000000    5.00000000     
-5.00000000    5.00000000     
ITEM: ATOMS id type q x y z mux muy muz
      1   1    1.0000       3.079992      -1.076538      -1.903984      -0.969812       0.168490       0.176283
      2   2   -1.0000       3.284106       1.513798       1.336469      -0.828635       0.060517       0.556509
      3   1    1.0000       0.598691       2.015238      -2.635633      -0.893508      -0.312980       0.322005
      4   2   -1.0000      -4.342252       2.831960      -3.275884       0.245091      -0.775325      -0.582067
      5   2   -1.0000       2.557265      -3.950302      -1.739637      -0.209912      -0.088508      -0.973706
ITEM: TIMESTEP
1400
ITEM: NUMBER OF ATOMS
5
ITEM: BOX BOUNDS ff ff ff
-5.00000000    5.00000000     
-5.00000000    5.00000000     
-5.00000000    5.00000000     
ITEM: ATOMS id type q x y z mux muy muz
      1   1    1.0000       3.102121      -1.108493      -1.869068      -0.961574       0.106118       0.253209
      2   2   -1.0000       3.256114       1.553268       1.363418      -0.779972       0.057078       0.623206
      3   1    1.0000       0.556470       2.007196      -2.689914      -0.913111      -0.226403       0.339073
      4   2   -1.0000      -4.316498       2.811406      -3.244297       0.095835      -0.912153      -0.398487
      5   2   -1.0000       2.579596      -3.929221      -1.778808      -0.191969      -0.155856      -0.968946
ITEM: TIMESTEP
1500
ITEM: NUMBER OF ATOMS
5
ITEM: BOX BOUNDS ff ff ff
-5.00000000    5.00000000     
-5.00000000    5.00000000     
-5.00000000    5.00000000     
ITEM: ATOMS id type q x y z mux muy muz
      1   1    1.0000       3.125033      -1.141549      -1.833575      -0.942148       0.035474       0.333314
      2   2   -1.0000       3.227927       1.592131       1.389550      -0.724789       0.054830       0.686785
      3   1    1.0000       0.514141       1.999701      -2.743516      -0.925433      -0.137118       0.353231
      4   2   -1.0000      -4.290599       2.790857      -3.213038      -0.060774      -0.979440      -0.192364
      5   2   -1.0000       2.601300      -3.906983      -1.818090      -0.171270      -0.230112      -0.957974
ITEM: TIMESTEP
1600
ITEM: NUMBER OF ATOMS
5
ITEM: BOX BOUNDS ff ff ff
-5.00000000    5.00000000     
-5.00000000    5.00000000     
-5.00000000    5.00000000     
ITEM: ATOMS id type q x y z mux muy muz
      1   1    1.0000       3.148607      -1.175872      -1.797608      -0.909340      -0.043370       0.413787
      2   2   -1.0000       3.199596       1.630327       1.414863      -0.663753       0.053841       0.746011
      3   1    1.0000       0.471759       1.992727      -2.796425      -0.930179      -0.046688       0.364124
      4   2   -1.0000      -4.264542       2.770309      -3.182104      -0.213302      -0.976782       0.019995
      5   2   -1.0000       2.622381      -3.883335      -1.857394      -0.147820      -0.310469      -0.939020
ITEM: TIMESTEP
1700
ITEM: NUMBER OF ATOMS
5
ITEM: BOX BOUNDS ff ff ff
-5.00000000    5.00000000     
-5.00000000    5.00000000     
-5.00000000    5.00000000     
ITEM: ATOMS id type q x y z mux muy muz
      1   1    1.0000       3.172689      -1.211678      -1.761326      -0.861368      -0.129874       0.491099
      2   2   -1.0000       3.171180       1.667795       1.439360      -0.597726       0.054142       0.799871
      3   1    1.0000       0.429371       1.986248      -2.848619      -0.927399       0.043319       0.371557
      4   2   -1.0000      -4.238307       2.749772      -3.151497      -0.351844      -0.908966       0.223576
      5   2   -1.0000       2.642868      -3.857980      -1.896587      -0.121821      -0.395602      -0.910307
ITEM: TIMESTEP
1800
ITEM: NUMBER OF ATOMS
5
ITEM: BOX BOUNDS ff ff ff
-5.00000000    5.00000000     
-5.00000000    5.00000000     
-5.00000000    5.00000000     
ITEM: ATOMS id type q x y z mux muy muz
      1   1    1.0000       3.197093      -1.249230      -1.724951      -0.797145      -0.222959       0.561114
      2   2   -1.0000       3.142748       1.704479       1.463048      -0.527679       0.055722       0.847614
      3   1    1.0000       0.387015       1.980229      -2.900070      -0.917456       0.131439       0.375498
      4   2   -1.0000      -4.211873       2.729266      -3.121221      -0.468583      -0.784764       0.405679
      5   2   -1.0000       2.662820      -3.830587      -1.935475      -0.093743      -0.483614      -0.870247
ITEM: TIMESTEP
1900
ITEM: NUMBER OF ATOMS
5
ITEM: BOX BOUNDS ff ff ff
-5.00000000    5.00000000     
-5.00000000    5.00000000     
-5.00000000    5.00000000     
ITEM: ATOMS id type q x y z mux muy muz
      1   1    1.0000       3.221584      -1.288826      -1.688780      -0.716540      -0.321006       0.619294
      2   2   -1.0000       3.114375       1.740330       1.485940      -0.454602       0.058532       0.888770
      3   1    1.0000       0.344719       1.974629      -2.950740      -0.900968       0.216391       0.376075
      4   2   -1.0000      -4.185215       2.708827      -3.091288      -0.558033      -0.615553       0.556501
      5   2   -1.0000       2.682338      -3.800804      -1.973801      -0.064367      -0.572056      -0.817685
ITEM: TIMESTEP
2000
ITEM: NUMBER OF ATOMS
5
ITEM: BOX BOUNDS ff ff ff
-5.00000000    5.00000000     
-5.00000000    5.00000000     
-5.00000000    5.00000000     
ITEM: ATOMS id type q x y z mux muy muz
      1   1    1.0000       3.245882      -1.330785      -1.653186      -0.620563      -0.421913       0.660977
      2   2   -1.0000       3.086144       1.775309       1.508052      -0.379406       0.062488       0.923118
      3   1    1.0000       0.302510       1.969399      -3.000584      -0.878727       0.297141       0.373560
      4   2   -1.0000      -4.158311       2.688503      -3.061718      -0.616977      -0.413997       0.669287
      5   2   -1.0000       2.701578      -3.768270      -2.011233      -0.034824      -0.658050      -0.752168
ITEM: TIMESTEP
2100
ITEM: NUMBER OF ATOMS
5
ITEM: BOX BOUNDS ff ff ff
-5.00000000    5.00000000     
-5.00000000    5.00000000     
-5.00000000    5.00000000     
ITEM: ATOMS id type q x y z mux muy muz
      1   1    1.0000       3.269646      -1.375425      -1.618625      -0.511444      -0.523215       0.681668
      2   2   -1.0000       3.058138       1.809387       1.529405      -0.302865       0.067469       0.950642
      3   1    1.0000       0.260408       1.964481      -3.049546      -0.851620       0.372921       0.368339
      4   2   -1.0000      -4.131143       2.668355      -3.032540      -0.644194      -0.192960       0.740122
      5   2   -1.0000       2.720753      -3.732642      -2.047364      -0.006594      -0.738524      -0.674195
ITEM: TIMESTEP
2200
ITEM: NUMBER OF ATOMS
5
ITEM: BOX BOUNDS ff ff ff
-5.00000000    5.00000000     
-5.00000000    5.00000000     
-5.00000000    5.00000000     
ITEM: ATOMS id type q x y z mux muy muz
      1   1    1.0000       3.292480      -1.423038      -1.585628      -0.392594      -0.622209       0.677293
      2   2   -1.0000       3.030441       1.842548       1.550024      -0.225575       0.073327       0.971462
      3   1    1.0000       0.218437       1.959808      -3.097559      -0.820559       0.443219       0.360886
      4   2   -1.0000      -4.103703       2.648454      -3.003794      -0.640070       0.035227       0.767509
      5   2   -1.0000       2.740147      -3.693615      -2.081712       0.018526      -0.810544      -0.585385
ITEM: TIMESTEP
2300
ITEM: NUMBER OF ATOMS
5
ITEM: BOX BOUNDS ff ff ff
-5.00000000    5.00000000     
-5.00000000    5.00000000     
-5.00000000    5.00000000     
ITEM: ATOMS id type q x y z mux muy muz
      1   1    1.0000       3.313922      -1.473866      -1.554795      -0.268471      -0.716040       0.644368
      2   2   -1.0000       3.003138       1.874781       1.569930      -0.147970       0.079887       0.985760
      3   1    1.0000       0.176632       1.955312      -3.144538      -0.786438       0.507736       0.351739
      4   2   -1.0000      -4.075999       2.628878      -2.975536      -0.606226       0.259113       0.751898
      5   2   -1.0000       2.760109      -3.650949      -2.113729       0.038467      -0.871690      -0.488545
ITEM: TIMESTEP
2400
ITEM: NUMBER OF ATOMS
5
ITEM: BOX BOUNDS ff ff ff
-5.00000000    5.00000000     
-5.00000000    5.00000000     
-5.00000000    5.00000000     
ITEM: ATOMS id type q x y z mux muy muz
      1   1    1.0000       3.333445      -1.528090      -1.526786      -0.144436      -0.801645       0.580089
      2   2   -1.0000       2.976316       1.906080       1.589138      -0.070362       0.086945       0.993725
      3   1    1.0000       0.135046       1.950922      -3.190379      -0.750114       0.566317       0.341489
      4   2   -1.0000      -4.048064       2.609718      -2.947837      -0.545269       0.468177       0.695336
      5   2   -1.0000       2.781058      -3.604473      -2.142805       0.050955      -0.920415      -0.387608
ITEM: TIMESTEP
2500
ITEM: NUMBER OF ATOMS
5
ITEM: BOX BOUNDS ff ff ff
-5.00000000    5.00000000     
-5.00000000    5.00000000     
-5.00000000    5.00000000     
ITEM: ATOMS id type q x y z mux muy muz
      1   1    1.0000       3.350451      -1.585817      -1.502314      -0.026670      -0.875526       0.482434
      2   2   -1.0000       2.950070       1.936426       1.607650       0.006955       0.094263       0.995523
      3   1    1.0000       0.093769       1.946571      -3.234943      -0.712426       0.618893       0.330787
      4   2   -1.0000      -4.019962       2.591073      -2.920791      -0.460732       0.652759       0.601358
      5   2   -1.0000       2.803473      -3.554098      -2.168271       0.053555      -0.956289      -0.287477
ITEM: TIMESTEP
2600
ITEM: NUMBER OF ATOMS
5
ITEM: BOX BOUNDS ff ff ff
-5.00000000    5.00000000     
-5.00000000    5.00000000     
-5.00000000    5.00000000     
ITEM: ATOMS id type q x y z mux muy muz
      1   1    1.0000       3.364258      -1.647096      -1.482157       0.077805      -0.933336       0.350471
      2   2   -1.0000       2.924513       1.965780       1.625444       0.083597       0.101560       0.991311
      3   1    1.0000       0.052948       1.942203      -3.278044      -0.674234       0.665423       0.320345
      4   2   -1.0000      -3.991807       2.573059      -2.894526      -0.357206       0.804133       0.475156
      5   2   -1.0000       2.827890      -3.499790      -2.189386       0.043720      -0.980066      -0.193804
ITEM: TIMESTEP
2700
ITEM: NUMBER OF ATOMS
5
ITEM: BOX BOUNDS ff ff ff
-5.00000000    5.00000000     
-5.00000000    5.00000000     
-5.00000000    5.00000000     
ITEM: ATOMS id type q x y z mux muy muz
      1   1    1.0000       3.374093      -1.711935      -1.467184       0.161063      -0.969422       0.185148
      2   2   -1.0000       2.899792       1.994052       1.642461       0.158952       0.108512       0.981305
      3   1    1.0000       0.012819       1.937779      -3.319416      -0.636456       0.705860       0.310942
      4   2   -1.0000      -3.963787       2.555814      -2.869219      -0.240553       0.914996       0.323908
      5   2   -1.0000       2.854885      -3.441552      -2.205312       0.018864      -0.993442      -0.112773
ITEM: TIMESTEP
2800
ITEM: NUMBER OF ATOMS
5
ITEM: BOX BOUNDS ff ff ff
-5.00000000    5.00000000     
-5.00000000    5.00000000     
-5.00000000    5.00000000     
ITEM: ATOMS id type q x y z mux muy muz
      1   1    1.0000       3.379073      -1.780344      -1.458406       0.214429      -0.976696      -0.009220
      2   2   -1.0000       2.876122       2.021068       1.658587       0.232092       0.114763       0.965900
      3   1    1.0000      -0.026241       1.933287      -3.358676      -0.600094       0.740162       0.303395
      4   2   -1.0000      -3.936196       2.539514      -2.845122      -0.117956       0.980537       0.156949
      5   2   -1.0000       2.885044      -3.379369      -2.215052      -0.023414      -0.998430      -0.050880
ITEM: TIMESTEP
2900
ITEM: NUMBER OF ATOMS
5
ITEM: BOX BOUNDS ff ff ff
-5.00000000    5.00000000     
-5.00000000    5.00000000     
-5.00000000    5.00000000     
ITEM: ATOMS id type q x y z mux muy muz
      1   1    1.0000       3.378219      -1.852385      -1.457068       0.229313      -0.947489      -0.222891
      2   2   -1.0000       2.853822       2.046518       1.673623       0.301778       0.119956       0.945802
      3   1    1.0000      -0.063639       1.928763      -3.395262      -0.566187       0.768333       0.298489
      4   2   -1.0000      -3.909493       2.524400      -2.822599       0.002515       0.999889      -0.014706
      5   2   -1.0000       2.918893      -3.313139      -2.217363      -0.084759      -0.996293      -0.014725
ITEM: TIMESTEP
3000
ITEM: NUMBER OF ATOMS
5
ITEM: BOX BOUNDS ff ff ff
-5.00000000    5.00000000     
-5.00000000    5.00000000     
-5.00000000    5.00000000     
ITEM: ATOMS id type q x y z mux muy muz
      1   1    1.0000       3.370541      -1.928267      -1.464735       0.199198      -0.876113      -0.439028
      2   2   -1.0000       2.833375       2.069887       1.687251       0.366656       0.123793       0.922084
      3   1    1.0000      -0.098474       1.924304      -3.428352      -0.535689       0.790513       0.296861
      4   2   -1.0000      -3.884365       2.510801      -2.802173       0.113065       0.977169      -0.179881
      5   2   -1.0000       2.956724      -3.242568      -2.210659      -0.164849      -0.986261      -0.010664
ITEM: TIMESTEP
3100
ITEM: NUMBER OF ATOMS
5
ITEM: BOX BOUNDS ff ff ff
-5.00000000    5.00000000     
-5.00000000    5.00000000     
-5.00000000    5.00000000     
ITEM: ATOMS id type q x y z mux muy muz
      1   1    1.0000       3.355327      -2.008587      -1.483351       0.122651      -0.763298      -0.634297
      2   2   -1.0000       2.815471       2.090405       1.699016       0.425669       0.126096       0.896050
      3   1    1.0000      -0.129450       1.920093      -3.456822      -0.509235       0.807061       0.298886
      4   2   -1.0000      -3.861799       2.499156      -2.784558       0.207847       0.920936      -0.329660
      5   2   -1.0000       2.998253      -3.166911      -2.192954      -0.259362      -0.964768      -0.044194
ITEM: TIMESTEP
3200
ITEM: NUMBER OF ATOMS
5
ITEM: BOX BOUNDS ff ff ff
-5.00000000    5.00000000     
-5.00000000    5.00000000     
-5.00000000    5.00000000     
ITEM: ATOMS id type q x y z mux muy muz
      1   1    1.0000       3.332775      -2.095095      -1.515206       0.006112      -0.621629      -0.783288
      2   2   -1.0000       2.800966       2.107085       1.708365       0.478625       0.126833       0.868810
      3   1    1.0000      -0.154937       1.916401      -3.479341      -0.486894       0.818604       0.304666
      4   2   -1.0000      -3.843040       2.489977      -2.770595       0.284374       0.841288      -0.459746
      5   2   -1.0000       3.042038      -3.084213      -2.161893      -0.357141      -0.926428      -0.119086
ITEM: TIMESTEP
3300
ITEM: NUMBER OF ATOMS
5
ITEM: BOX BOUNDS ff ff ff
-5.00000000    5.00000000     
-5.00000000    5.00000000     
-5.00000000    5.00000000     
ITEM: ATOMS id type q x y z mux muy muz
      1   1    1.0000       3.306204      -2.189219      -1.560372      -0.135228      -0.482108      -0.865613
      2   2   -1.0000       2.790656       2.118989       1.714816       0.526877       0.126048       0.840543
      3   1    1.0000      -0.173361       1.913539      -3.494781      -0.467929       0.825996       0.314283
      4   2   -1.0000      -3.829318       2.483686      -2.761001       0.343872       0.744929      -0.571692
      5   2   -1.0000       3.083622      -2.992839      -2.117330      -0.436049      -0.868118      -0.237134
ITEM: TIMESTEP
3400
ITEM: NUMBER OF ATOMS
5
ITEM: BOX BOUNDS ff ff ff
-5.00000000    5.00000000     
-5.00000000    5.00000000     
-5.00000000    5.00000000     
ITEM: ATOMS id type q x y z mux muy muz
      1   1    1.0000       3.315340      -2.177588      -1.529732      -0.278333      -0.401026      -0.872759
      2   2   -1.0000       2.782938       2.127939       1.719425       0.574271       0.123642       0.809275
      3   1    1.0000      -0.187412       1.911191      -3.505718      -0.450544       0.830109       0.328525
      4   2   -1.0000      -3.818705       2.479198      -2.754192       0.390297       0.628382      -0.672907
      5   2   -1.0000       3.085640      -3.006584      -2.148451      -0.457575      -0.795296      -0.397655
ITEM: TIMESTEP
3500
ITEM: NUMBER OF ATOMS
5
ITEM: BOX BOUNDS ff ff ff
-5.00000000    5.00000000     
-5.00000000    5.00000000     
-5.00000000    5.00000000     
ITEM: ATOMS id type q x y z mux muy muz
      1   1    1.0000       3.339253      -2.147774      -1.479594      -0.402168      -0.406598      -0.820329
      2   2   -1.0000       2.776302       2.135657       1.723136       0.623940       0.119339       0.772306
      3   1    1.0000      -0.199730       1.908995      -3.514442      -0.433231       0.831103       0.348680
      4   2   -1.0000      -3.809258       2.475548      -2.748753       0.424156       0.482170      -0.766553
      5   2   -1.0000       3.071234      -3.038270      -2.199016      -0.401369      -0.711943      -0.576230
ITEM: TIMESTEP
3600
ITEM: NUMBER OF ATOMS
5
ITEM: BOX BOUNDS ff ff ff
-5.00000000    5.00000000     
-5.00000000    5.00000000     
-5.00000000    5.00000000     
ITEM: ATOMS id type q x y z mux muy muz
      1   1    1.0000       3.379881      -2.163425      -1.422978      -0.486732      -0.479500      -0.730187
      2   2   -1.0000       2.762649       2.151551       1.730342       0.671467       0.113483       0.732293
      3   1    1.0000      -0.225440       1.904252      -3.531263      -0.417103       0.828666       0.373280
      4   2   -1.0000      -3.789336       2.468324      -2.738264       0.439638       0.317855      -0.840051
      5   2   -1.0000       3.050048      -3.026546      -2.256507      -0.287983      -0.624539      -0.725959
ITEM: TIMESTEP
3700
ITEM: NUMBER OF ATOMS
5
ITEM: BOX BOUNDS ff ff ff
-5.00000000    5.00000000     
-5.00000000    5.00000000     
-5.00000000    5.00000000     
ITEM: ATOMS id type q x y z mux muy muz
      1   1    1.0000       3.420603      -2.227257      -1.387324      -0.527477      -0.581611      -0.619271
      2   2   -1.0000       2.745529       2.171486       1.739073       0.715071       0.106435       0.690902
      3   1    1.0000      -0.257944       1.898190      -3.551509      -0.402385       0.822793       0.401371
      4   2   -1.0000      -3.764013       2.459422      -2.725648       0.435325       0.144973      -0.888524
      5   2   -1.0000       3.033626      -2.967684      -2.293261      -0.152212      -0.534995      -0.831031
ITEM: TIMESTEP
3800
ITEM: NUMBER OF ATOMS
5
ITEM: BOX BOUNDS ff ff ff
-5.00000000    5.00000000     
-5.00000000    5.00000000     
-5.00000000    5.00000000     
ITEM: ATOMS id type q x y z mux muy muz
      1   1    1.0000       3.443162      -2.317876      -1.391820      -0.531837      -0.678113      -0.507260
      2   2   -1.0000       2.729604       2.190038       1.746956       0.756194       0.098084       0.646955
      3   1    1.0000      -0.288421       1.892495      -3.569604      -0.388199       0.813095       0.433795
      4   2   -1.0000      -3.740161       2.451224      -2.714391       0.410305      -0.038231      -0.911146
      5   2   -1.0000       3.033617      -2.881724      -2.289810      -0.026599      -0.437802      -0.898678
ITEM: TIMESTEP
3900
ITEM: NUMBER OF ATOMS
5
ITEM: BOX BOUNDS ff ff ff
-5.00000000    5.00000000     
-5.00000000    5.00000000     
-5.00000000    5.00000000     
ITEM: ATOMS id type q x y z mux muy muz