ITEM: TIMESTEP
0
ITEM: NUMBER OF ATOMS
5
ITEM: BOX BOUNDS ff ff ff
-5.00000000    5.00000000     
-5.00000000    5.00000000     
-5.00000000    5.00000000     
ITEM: ATOMS id type q x y z mux muy muz
      1   1    1.0000      -3.607949       0.802082       3.880950      -0.079352      -0.107035      -0.991084
      2   2   -1.0000      -0.264060       2.465922       3.046442      -0.124068      -0.694405       0.708808
      3   1    1.0000       2.365277       4.253362      -0.531566      -0.434076      -0.741001       0.512343
      4   2   -1.0000      -3.268988      -4.521648      -2.535322       0.582720       0.808972       0.077471
      5   2   -1.0000      -3.568746       0.579033      -3.150314       0.045269       0.327602       0.943731
ITEM: TIMESTEP
100
ITEM: NUMBER OF ATOMS
5
ITEM: BOX BOUNDS ff ff ff
-5.00000000    5.00000000     
-5.00000000    5.00000000     
-5.00000000    5.00000000     
ITEM: ATOMS id type q x y z mux muy muz
      1   1    1.0000      -3.599292       0.791344       3.867886      -0.117973      -0.157728      -0.980410
      2   2   -1.0000      -0.209637       2.491480       3.018871      -0.117142      -0.703099       0.701377
      3   1    1.0000       2.398524       4.259716      -0.522199      -0.574853      -0.704549       0.416119
      4   2   -1.0000      -3.293211      -4.497590      -2.527328       0.599292       0.790652       0.125376
      5   2   -1.0000      -3.640850       0.533802      -3.127041       0.052379       0.332294       0.941720
ITEM: TIMESTEP
200
ITEM: NUMBER OF ATOMS
5
ITEM: BOX BOUNDS ff ff ff
-5.00000000    5.00000000     
-5.00000000    5.00000000     
-5.00000000    5.00000000     
ITEM: ATOMS id type q x y z mux muy muz
      1   1    1.0000      -3.590366       0.780722       3.854489      -0.161780      -0.216920      -0.962690
      2   2   -1.0000      -0.154983       2.517061       2.990905      -0.106218      -0.711813       0.694291
      3   1    1.0000       2.431284       4.265807      -0.512358      -0.696481      -0.646943       0.310451
      4   2   -1.0000      -3.317472      -4.473712      -2.519187       0.616137       0.766219       0.182440
      5   2   -1.0000      -3.712928       0.488874      -3.103659       0.060107       0.335547       0.940104
ITEM: TIMESTEP
300
ITEM: NUMBER OF ATOMS
5
ITEM: BOX BOUNDS ff ff ff
-5.00000000    5.00000000     
-5.00000000    5.00000000     
-5.00000000    5.00000000     
ITEM: ATOMS id type q x y z mux muy muz
      1   1    1.0000      -3.581193       0.770202       3.840769      -0.210792      -0.284910      -0.935090
      2   2   -1.0000      -0.100094       2.542682       2.962509      -0.090938      -0.720348       0.687626
      3   1    1.0000       2.463555       4.271626      -0.502019      -0.795262      -0.572088       0.200683
      4   2   -1.0000      -3.341765      -4.450035      -2.510899       0.632221       0.733266       0.250235
      5   2   -1.0000      -3.784970       0.444277      -3.080169       0.068492       0.336931       0.939035
ITEM: TIMESTEP
400
ITEM: NUMBER OF ATOMS
5
ITEM: BOX BOUNDS ff ff ff
-5.00000000    5.00000000     
-5.00000000    5.00000000     
-5.00000000    5.00000000     
ITEM: ATOMS id type q x y z mux muy muz
      1   1    1.0000      -3.571795       0.759771       3.826738      -0.264266      -0.360951      -0.894359
      2   2   -1.0000      -0.044966       2.568362       2.933653      -0.071083      -0.728398       0.681457
      3   1    1.0000       2.495341       4.277164      -0.491160      -0.869442      -0.485294       0.092524
      4   2   -1.0000      -3.366082      -4.426585      -2.502465       0.645716       0.688582       0.330007
      5   2   -1.0000      -3.856964       0.400040      -3.056576       0.077525       0.335967       0.938678
ITEM: TIMESTEP
500
ITEM: NUMBER OF ATOMS
5
ITEM: BOX BOUNDS ff ff ff
-5.00000000    5.00000000     
-5.00000000    5.00000000     
-5.00000000    5.00000000     
ITEM: ATOMS id type q x y z mux muy muz
      1   1    1.0000      -3.562193       0.749418       3.812404      -0.320308      -0.442638      -0.837541
      2   2   -1.0000       0.010404       2.594118       2.904315      -0.046767      -0.735543       0.675862
      3   1    1.0000       2.526645       4.282413      -0.479765      -0.919549      -0.392885      -0.008472
      4   2   -1.0000      -3.390418      -4.403393      -2.493883       0.653666       0.628225       0.421964
      5   2   -1.0000      -3.928904       0.356196      -3.032880       0.087106       0.332184       0.939184
ITEM: TIMESTEP
600
ITEM: NUMBER OF ATOMS
5
ITEM: BOX BOUNDS ff ff ff
-5.00000000    5.00000000     
-5.00000000    5.00000000     
-5.00000000    5.00000000     
ITEM: ATOMS id type q x y z mux muy muz
      1   1    1.0000      -3.552409       0.739133       3.797773      -0.375742      -0.525621      -0.763244
      2   2   -1.0000       0.066022       2.619969       2.874478      -0.018643      -0.741291       0.670925
      3   1    1.0000       2.557472       4.287364      -0.467821      -0.948471      -0.301447      -0.097638
      4   2   -1.0000      -3.414762      -4.380494      -2.485155       0.651798       0.547973       0.524294
      5   2   -1.0000      -4.000789       0.312779      -3.009086       0.097021       0.325218       0.940649
ITEM: TIMESTEP
700
ITEM: NUMBER OF ATOMS
5
ITEM: BOX BOUNDS ff ff ff
-5.00000000    5.00000000     
-5.00000000    5.00000000     
-5.00000000    5.00000000     
ITEM: ATOMS id type q x y z mux muy muz
      1   1    1.0000      -3.542460       0.728909       3.782852      -0.426582      -0.604166      -0.673061
      2   2   -1.0000       0.121896       2.645934       2.844131       0.011989      -0.745189       0.666745
      3   1    1.0000       2.587825       4.292009      -0.455316      -0.960961      -0.216807      -0.171898
      4   2   -1.0000      -3.439105      -4.357928      -2.476278       0.634745       0.444296       0.632219
      5   2   -1.0000      -4.072621       0.269828      -2.985199       0.106955       0.314929       0.943069
ITEM: TIMESTEP
800
ITEM: NUMBER OF ATOMS
5
ITEM: BOX BOUNDS ff ff ff
-5.00000000    5.00000000     
-5.00000000    5.00000000     
-5.00000000    5.00000000     
ITEM: ATOMS id type q x y z mux muy muz
      1   1    1.0000      -3.532368       0.718738       3.767641      -0.469155      -0.672696      -0.572166
      2   2   -1.0000       0.178035       2.672031       2.813265       0.043298      -0.746982       0.663433
      3   1    1.0000       2.617705       4.296340      -0.442244      -0.962582      -0.143100      -0.230127
      4   2   -1.0000      -3.463430      -4.335743      -2.467249       0.596864       0.315684       0.737630
      5   2   -1.0000      -4.144409       0.227386      -2.961223       0.116563       0.301469       0.946324
ITEM: TIMESTEP
900
ITEM: NUMBER OF ATOMS
5
ITEM: BOX BOUNDS ff ff ff
-5.00000000    5.00000000     
-5.00000000    5.00000000     
-5.00000000    5.00000000     
ITEM: ATOMS id type q x y z mux muy muz
      1   1    1.0000      -3.522147       0.708615       3.752141      -0.501308      -0.727578      -0.468317
      2   2   -1.0000       0.234455       2.698281       2.781875       0.073276      -0.746711       0.661100
      3   1    1.0000       2.647109       4.300347      -0.428594      -0.958493      -0.082367      -0.272961
      4   2   -1.0000      -3.487717      -4.313990      -2.458064       0.533547       0.163908       0.829736
      5   2   -1.0000      -4.216165       0.185498      -2.937168       0.125562       0.285249       0.950193
ITEM: TIMESTEP
1000
ITEM: NUMBER OF ATOMS
5
ITEM: BOX BOUNDS ff ff ff
-5.00000000    5.00000000     
-5.00000000    5.00000000     
-5.00000000    5.00000000     
ITEM: ATOMS id type q x y z mux muy muz
      1   1    1.0000      -3.511815       0.698538       3.736352      -0.522948      -0.768048      -0.369632
      2   2   -1.0000       0.291169       2.724702       2.749956       0.100166      -0.744711       0.659828
      3   1    1.0000       2.676029       4.304021      -0.414358      -0.952615      -0.034791      -0.302183
      4   2   -1.0000      -3.511938      -4.292723      -2.448712       0.442597      -0.005346       0.896705
      5   2   -1.0000      -4.287910       0.144214      -2.913048       0.133812       0.266827       0.954410
ITEM: TIMESTEP
1100
ITEM: NUMBER OF ATOMS
5
ITEM: BOX BOUNDS ff ff ff
-5.00000000    5.00000000     
-5.00000000    5.00000000     
-5.00000000    5.00000000     
ITEM: ATOMS id type q x y z mux muy muz
      1   1    1.0000      -3.501383       0.688503       3.720270      -0.535652      -0.795819      -0.282399
      2   2   -1.0000       0.348192       2.751311       2.717504       0.122773      -0.741488       0.659638
      3   1    1.0000       2.704453       4.307349      -0.399524      -0.947396       0.000720      -0.320062
      4   2   -1.0000      -3.536062      -4.271996      -2.439182       0.325143      -0.182824       0.927824
      5   2   -1.0000      -4.359666       0.103584      -2.888878       0.141341       0.246770       0.958711
ITEM: TIMESTEP
1200
ITEM: NUMBER OF ATOMS
5
ITEM: BOX BOUNDS ff ff ff
-5.00000000    5.00000000     
-5.00000000    5.00000000     
-5.00000000    5.00000000     
ITEM: ATOMS id type q x y z mux muy muz
      1   1    1.0000      -3.490861       0.678508       3.703892      -0.541763      -0.813877      -0.209993
      2   2   -1.0000       0.405536       2.778125       2.684512       0.140569      -0.737570       0.660478
      3   1    1.0000       2.732364       4.310320      -0.384076      -0.944024       0.025894      -0.328859
      4   2   -1.0000      -3.560048      -4.251857      -2.429455       0.185724      -0.357011       0.915451
      5   2   -1.0000      -4.431457       0.063656      -2.864683       0.148315       0.225539       0.962878
ITEM: TIMESTEP
1300
ITEM: NUMBER OF ATOMS
5
ITEM: BOX BOUNDS ff ff ff
-5.00000000    5.00000000     
-5.00000000    5.00000000     
-5.00000000    5.00000000     
ITEM: ATOMS id type q x y z mux muy muz
      1   1    1.0000      -3.480259       0.668552       3.687214      -0.543559      -0.825298      -0.153059
      2   2   -1.0000       0.463213       2.805157       2.650972       0.153582      -0.733389       0.662233
      3   1    1.0000       2.759738       4.312920      -0.367997      -0.942828       0.042623      -0.330543
      4   2   -1.0000      -3.583852      -4.232349      -2.419510       0.031562      -0.515863       0.856090
      5   2   -1.0000      -4.503305       0.024472      -2.840489       0.154986       0.203456       0.966739
ITEM: TIMESTEP
1400
ITEM: NUMBER OF ATOMS
5
ITEM: BOX BOUNDS ff ff ff
-5.00000000    5.00000000     
-5.00000000    5.00000000     
-5.00000000    5.00000000     
ITEM: ATOMS id type q x y z mux muy muz
      1   1    1.0000      -3.469586       0.658632       3.670235      -0.542804      -0.832570      -0.110408
      2   2   -1.0000       0.521226       2.832420       2.616871       0.162203      -0.729236       0.664759
      3   1    1.0000       2.786547       4.315132      -0.351265      -0.943661       0.052655      -0.326698
      4   2   -1.0000      -3.607428      -4.213498      -2.409321      -0.128516      -0.648302       0.750459
      5   2   -1.0000      -4.575226      -0.013934      -2.816329       0.161628       0.180709       0.970165
ITEM: TIMESTEP
1500
ITEM: NUMBER OF ATOMS
5
ITEM: BOX BOUNDS ff ff ff
-5.00000000    5.00000000     
-5.00000000    5.00000000     
-5.00000000    5.00000000     
ITEM: ATOMS id type q x y z mux muy muz
      1   1    1.0000      -3.458848       0.648745       3.652952      -0.540678      -0.837419      -0.079979
      2   2   -1.0000       0.579580       2.859924       2.582196       0.166973      -0.725266       0.667914
      3   1    1.0000       2.812757       4.316942      -0.333856      -0.946174       0.057464      -0.318517
      4   2   -1.0000      -3.630728      -4.195318      -2.398861      -0.285072      -0.745127       0.602926
      5   2   -1.0000      -4.647227      -0.051542      -2.792241       0.168489       0.157415       0.973053
ITEM: TIMESTEP
1600
ITEM: NUMBER OF ATOMS
5
ITEM: BOX BOUNDS ff ff ff
-5.00000000    5.00000000     
-5.00000000    5.00000000     
-5.00000000    5.00000000     
ITEM: ATOMS id type q x y z mux muy muz
      1   1    1.0000      -3.448055       0.638889       3.635367      -0.537878      -0.840918      -0.059524
      2   2   -1.0000       0.638272       2.887677       2.546930       0.168454      -0.721533       0.671575
      3   1    1.0000       2.838329       4.318332      -0.315741      -0.949969       0.058224      -0.306870
      4   2   -1.0000      -3.653708      -4.177806      -2.388104      -0.428753      -0.799437       0.420799
      5   2   -1.0000      -4.719304      -0.088340      -2.768262       0.175754       0.133672       0.975317
ITEM: TIMESTEP
1700
ITEM: NUMBER OF ATOMS
5
ITEM: BOX BOUNDS ff ff ff
-5.00000000    5.00000000     
-5.00000000    5.00000000     
-5.00000000    5.00000000     
ITEM: ATOMS id type q x y z mux muy muz
      1   1    1.0000      -3.437218       0.629059       3.617484      -0.534779      -0.843685      -0.046969
      2   2   -1.0000       0.697298       2.915686       2.511053       0.167144      -0.718025       0.675650
      3   1    1.0000       2.863220       4.319283      -0.296890      -0.954675       0.055838      -0.292367
      4   2   -1.0000      -3.676329      -4.160942      -2.377024      -0.550775      -0.806828       0.213721
      5   2   -1.0000      -4.791438      -0.124335      -2.744433       0.183535       0.109596       0.976885
ITEM: TIMESTEP
1800
ITEM: NUMBER OF ATOMS
5
ITEM: BOX BOUNDS ff ff ff
-5.00000000    5.00000000     
-5.00000000    5.00000000     
-5.00000000    5.00000000     
ITEM: ATOMS id type q x y z mux muy muz
      1   1    1.0000      -3.426346       0.619249       3.599306      -0.531561      -0.846048      -0.040559
      2   2   -1.0000       0.756654       2.943956       2.474541       0.163451      -0.714686       0.680080
      3   1    1.0000       2.887381       4.319777      -0.277267      -0.959968       0.050991      -0.275429
      4   2   -1.0000      -3.698559      -4.144690      -2.365600      -0.643322      -0.765565      -0.006827
      5   2   -1.0000      -4.863595      -0.159542      -2.720791       0.191860       0.085349       0.977704
ITEM: TIMESTEP
1900
ITEM: NUMBER OF ATOMS
5
ITEM: BOX BOUNDS ff ff ff
-5.00000000    5.00000000     
-5.00000000    5.00000000     
-5.00000000    5.00000000     
ITEM: ATOMS id type q x y z mux muy muz
      1   1    1.0000      -3.415455       0.609456       3.580844      -0.528298      -0.848168      -0.038874
      2   2   -1.0000       0.816332       2.972491       2.437366       0.157689      -0.711437       0.684830
      3   1    1.0000       2.910759       4.319795      -0.256832      -0.965578       0.044194      -0.256332
      4   2   -1.0000      -3.720377      -4.129001      -2.353817      -0.699982      -0.676782      -0.228017
      5   2   -1.0000      -4.935725      -0.193989      -2.697371       0.200676       0.061131       0.977748
ITEM: TIMESTEP
2000
ITEM: NUMBER OF ATOMS
5
ITEM: BOX BOUNDS ff ff ff
-5.00000000    5.00000000     
-5.00000000    5.00000000     
-5.00000000    5.00000000     
ITEM: ATOMS id type q x y z mux muy muz
      1   1    1.0000      -3.404556       0.599673       3.562108      -0.525015      -0.850114      -0.040798
      2   2   -1.0000       0.876329       3.001294       2.399493       0.150089      -0.708185       0.689890
      3   1    1.0000       2.933296       4.319315      -0.235541      -0.971276       0.035827      -0.235244
      4   2   -1.0000      -3.741772      -4.113818      -2.341666      -0.716236      -0.544642      -0.436315
      5   2   -1.0000      -4.992241      -0.227712      -2.674205       0.209860       0.037169       0.977025
ITEM: TIMESTEP
2100
ITEM: NUMBER OF ATOMS
5
ITEM: BOX BOUNDS ff ff ff
-5.00000000    5.00000000     
-5.00000000    5.00000000     
-5.00000000    5.00000000     
ITEM: ATOMS id type q x y z mux muy muz
      1   1    1.0000      -3.393665       0.589894       3.543107      -0.521712      -0.851909      -0.045467
      2   2   -1.0000       0.936657       3.030377       2.360873       0.140803      -0.704832       0.695260
      3   1    1.0000       2.954934       4.318316      -0.213337      -0.976864       0.026167      -0.212256
      4   2   -1.0000      -3.762750      -4.099083      -2.329141      -0.689953      -0.376336      -0.618334
      5   2   -1.0000      -4.920672      -0.260752      -2.651312       0.219216       0.013622       0.975581
ITEM: TIMESTEP
2200
ITEM: NUMBER OF ATOMS
5
ITEM: BOX BOUNDS ff ff ff
-5.00000000    5.00000000     
-5.00000000    5.00000000     
-5.00000000    5.00000000     
ITEM: ATOMS id type q x y z mux muy muz
      1   1    1.0000      -3.382773       0.580092       3.523816      -0.518379      -0.853555      -0.052226
      2   2   -1.0000       0.997451       3.059810       2.321375       0.129924      -0.701285       0.700942
      3   1    1.0000       2.975649       4.316767      -0.190115      -0.982161       0.015410      -0.187407
      4   2   -1.0000      -3.783367      -4.084723      -2.316213      -0.621740      -0.181796      -0.761833
      5   2   -1.0000      -4.849669      -0.293195      -2.628673       0.228482      -0.009511       0.973502
ITEM: TIMESTEP
2300
ITEM: NUMBER OF ATOMS
5
ITEM: BOX BOUNDS ff ff ff
-5.00000000    5.00000000     
-5.00000000    5.00000000     
-5.00000000    5.00000000     
ITEM: ATOMS id type q x y z mux muy muz
      1   1    1.0000      -3.371899       0.570269       3.504258      -0.515010      -0.855041      -0.060573
      2   2   -1.0000       1.058702       3.089592       2.280955       0.117493      -0.697441       0.706945
      3   1    1.0000       2.995357       4.314642      -0.165814      -0.986997       0.003698      -0.160695
      4   2   -1.0000      -3.803634      -4.070707      -2.302892      -0.515138       0.026781      -0.856689
      5   2   -1.0000      -4.779283      -0.325044      -2.606318       0.237382      -0.032203       0.970882
ITEM: TIMESTEP
2400
ITEM: NUMBER OF ATOMS
5
ITEM: BOX BOUNDS ff ff ff
-5.00000000    5.00000000     
-5.00000000    5.00000000     
-5.00000000    5.00000000     
ITEM: ATOMS id type q x y z mux muy muz
      1   1    1.0000      -3.361067       0.560428       3.484464      -0.511614      -0.856350      -0.070114
      2   2   -1.0000       1.120398       3.119723       2.239565       0.103505      -0.693194       0.713280
      3   1    1.0000       3.013961       4.311906      -0.140368      -0.991199      -0.008863      -0.132082
      4   2   -1.0000      -3.823564      -4.057008      -2.289202      -0.376564       0.235763      -0.895888
      5   2   -1.0000      -4.709569      -0.356298      -2.584268       0.245654      -0.054396       0.967830
ITEM: TIMESTEP
2500
ITEM: NUMBER OF ATOMS
5
ITEM: BOX BOUNDS ff ff ff
-5.00000000    5.00000000     
-5.00000000    5.00000000     
-5.00000000    5.00000000     
ITEM: ATOMS id type q x y z mux muy muz
      1   1    1.0000      -3.350304       0.550577       3.464469      -0.508207      -0.857460      -0.080547
      2   2   -1.0000       1.182531       3.150199       2.197148       0.087921      -0.688427       0.719957
      3   1    1.0000       3.031352       4.308526      -0.113703      -0.994587      -0.022197      -0.101508
      4   2   -1.0000      -3.843168      -4.043607      -2.275182      -0.214943       0.431150      -0.876304
      5   2   -1.0000      -4.640588      -0.386944      -2.562543       0.253061      -0.076028       0.964458
ITEM: TIMESTEP
2600
ITEM: NUMBER OF ATOMS
5
ITEM: BOX BOUNDS ff ff ff
-5.00000000    5.00000000     
-5.00000000    5.00000000     
-5.00000000    5.00000000     
ITEM: ATOMS id type q x y z mux muy muz
      1   1    1.0000      -3.339636       0.540728       3.444314      -0.504816      -0.858349      -0.091634
      2   2   -1.0000       1.245097       3.181022       2.153643       0.070666      -0.683017       0.726976
      3   1    1.0000       3.047408       4.304461      -0.085734      -0.996965      -0.036248      -0.068899
      4   2   -1.0000      -3.862453      -4.030501      -2.260882      -0.041036       0.599769      -0.799120
      5   2   -1.0000      -4.572410      -0.416957      -2.541151       0.259410      -0.097064       0.960877
ITEM: TIMESTEP
2700
ITEM: NUMBER OF ATOMS
5
ITEM: BOX BOUNDS ff ff ff
-5.00000000    5.00000000     
-5.00000000    5.00000000     
-5.00000000    5.00000000     
ITEM: ATOMS id type q x y z mux muy muz
      1   1    1.0000      -3.329094       0.530896       3.424045      -0.501473      -0.858997      -0.103190
      2   2   -1.0000       1.308096       3.212192       2.108976       0.051637      -0.676833       0.734323
      3   1    1.0000       3.061990       4.299663      -0.056365      -0.998115      -0.050973      -0.034182
      4   2   -1.0000      -3.881422      -4.017704      -2.246366       0.133466       0.730445      -0.669804
      5   2   -1.0000      -4.505117      -0.446295      -2.520100       0.264564      -0.117523       0.957180
ITEM: TIMESTEP
2800
ITEM: NUMBER OF ATOMS
5
ITEM: BOX BOUNDS ff ff ff
-5.00000000    5.00000000     
-5.00000000    5.00000000     
-5.00000000    5.00000000     
ITEM: ATOMS id type q x y z mux muy muz
      1   1    1.0000      -3.318709       0.521104       3.403714      -0.498215      -0.859384      -0.115068
      2   2   -1.0000       1.371537       3.243715       2.063062       0.030706      -0.669739       0.741961
      3   1    1.0000       3.074935       4.294078      -0.025484      -0.997794      -0.066334       0.002703
      4   2   -1.0000      -3.900070      -4.005252      -2.231707       0.296970       0.814975      -0.497619
      5   2   -1.0000      -4.438808      -0.474893      -2.499395       0.268443      -0.137501       0.953432
ITEM: TIMESTEP
2900
ITEM: NUMBER OF ATOMS
5
ITEM: BOX BOUNDS ff ff ff
-5.00000000    5.00000000     
-5.00000000    5.00000000     
-5.00000000    5.00000000     
ITEM: ATOMS id type q x y z mux muy muz
      1   1    1.0000      -3.308517       0.511377       3.383378      -0.495078      -0.859494      -0.127156
      2   2   -1.0000       1.435438       3.275602       2.015801       0.007724      -0.661592       0.749824
      3   1    1.0000       3.086055       4.287639       0.007039      -0.995732      -0.082294       0.041787
      4   2   -1.0000      -3.918382      -3.993201      -2.216983       0.438992       0.848778      -0.294724
      5   2   -1.0000      -4.373606      -0.502665      -2.479045       0.271036      -0.157184       0.949649
ITEM: TIMESTEP
3000
ITEM: NUMBER OF ATOMS
5
ITEM: BOX BOUNDS ff ff ff
-5.00000000    5.00000000     
-5.00000000    5.00000000     
-5.00000000    5.00000000     
ITEM: ATOMS id type q x y z mux muy muz
      1   1    1.0000      -3.298552       0.501747       3.363102      -0.492095      -0.859314      -0.139365
      2   2   -1.0000       1.499827       3.307867       1.967079      -0.017474      -0.652242       0.757809
      3   1    1.0000       3.095124       4.280268       0.041354      -0.991634      -0.098811       0.083062
      4   2   -1.0000      -3.936328      -3.981634      -2.202278       0.551008       0.831123      -0.075002
      5   2   -1.0000      -4.309660      -0.529496      -2.459067       0.272390      -0.176854       0.945794
ITEM: TIMESTEP
3100
ITEM: NUMBER OF ATOMS
5
ITEM: BOX BOUNDS ff ff ff
-5.00000000    5.00000000     
-5.00000000    5.00000000     
-5.00000000    5.00000000     
ITEM: ATOMS id type q x y z mux muy muz
      1   1    1.0000      -3.288855       0.492253       3.342962      -0.489293      -0.858836      -0.151631
      2   2   -1.0000       1.564741       3.340532       1.916763      -0.045072      -0.641535       0.765769
      3   1    1.0000       3.101876       4.271868       0.077634      -0.985184      -0.115837       0.126466
      4   2   -1.0000      -3.953863      -3.970656      -2.187676       0.627048       0.764941       0.147226
      5   2   -1.0000      -4.247163      -0.555245      -2.439494       0.272602      -0.196882       0.941767
ITEM: TIMESTEP
3200
ITEM: NUMBER OF ATOMS
5
ITEM: BOX BOUNDS ff ff ff
-5.00000000    5.00000000     
-5.00000000    5.00000000     
-5.00000000    5.00000000     
ITEM: ATOMS id type q x y z mux muy muz
      1   1    1.0000      -3.279470       0.482940       3.323045      -0.486693      -0.858059      -0.163906
      2   2   -1.0000       1.630227       3.373624       1.864706      -0.075264      -0.629310       0.773501
      3   1    1.0000       3.105984       4.262320       0.116081      -0.976057      -0.133313       0.171876
      4   2   -1.0000      -3.970924      -3.960387      -2.173262       0.663969       0.656270       0.358406
      5   2   -1.0000      -4.186356      -0.579744      -2.420381       0.271805      -0.217710       0.937403
ITEM: TIMESTEP
3300
ITEM: NUMBER OF ATOMS
5
ITEM: BOX BOUNDS ff ff ff
-5.00000000    5.00000000     
-5.00000000    5.00000000     
-5.00000000    5.00000000     
ITEM: ATOMS id type q x y z mux muy muz
      1   1    1.0000      -3.270449       0.473863       3.303460      -0.484301      -0.856984      -0.176157
      2   2   -1.0000       1.696340       3.407173       1.810741      -0.108264      -0.615401       0.780744
      3   1    1.0000       3.107047       4.251479       0.156926      -0.963920      -0.151177       0.219096
      4   2   -1.0000      -3.987426      -3.950966      -2.159125       0.661403       0.513441       0.546740
      5   2   -1.0000      -4.127546      -0.602798      -2.401812       0.270146      -0.239819       0.932474
ITEM: TIMESTEP
3400
ITEM: NUMBER OF ATOMS
5
ITEM: BOX BOUNDS ff ff ff
-5.00000000    5.00000000     
-5.00000000    5.00000000     
-5.00000000    5.00000000     
ITEM: ATOMS id type q x y z mux muy muz
      1   1    1.0000      -3.261854       0.465090       3.284342      -0.482115      -0.855619      -0.188365
      2   2   -1.0000       1.763144       3.441220       1.754684      -0.144306      -0.599631       0.787158
      3   1    1.0000       3.104573       4.239164       0.200432      -0.948453      -0.169365       0.267865
      4   2   -1.0000      -4.003256      -3.942536      -2.145357       0.621437       0.346163       0.702842
      5   2   -1.0000      -4.071122      -0.624187      -2.383911       0.267770      -0.263687       0.926697
ITEM: TIMESTEP
3500
ITEM: NUMBER OF ATOMS
5
ITEM: BOX BOUNDS ff ff ff
-5.00000000    5.00000000     
-5.00000000    5.00000000     
-5.00000000    5.00000000     
ITEM: ATOMS id type q x y z mux muy muz
      1   1    1.0000      -3.253759       0.456702       3.265862      -0.480122      -0.853976      -0.200521
      2   2   -1.0000       1.830715       3.475813       1.696337      -0.183662      -0.581815       0.792313
      3   1    1.0000       3.097942       4.225148       0.246902      -0.929351      -0.187826       0.317849
      4   2   -1.0000      -4.018272      -3.935238      -2.132067       0.548108       0.164630       0.820045
      5   2   -1.0000      -4.017579      -0.643673      -2.366844       0.264799      -0.289739       0.919746
ITEM: TIMESTEP
3600
ITEM: NUMBER OF ATOMS
5
ITEM: BOX BOUNDS ff ff ff
-5.00000000    5.00000000     
-5.00000000    5.00000000     
-5.00000000    5.00000000     
ITEM: ATOMS id type q x y z mux muy muz
      1   1    1.0000      -3.246254       0.448799       3.248241      -0.478298      -0.852069      -0.212626
      2   2   -1.0000       1.899148       3.511015       1.635482      -0.226658      -0.561754       0.795650
      3   1    1.0000       3.086374       4.209139       0.296683      -0.906336      -0.206537       0.368643
      4   2   -1.0000      -4.032290      -3.929202      -2.119383       0.446827      -0.021215       0.894369
      5   2   -1.0000      -3.967545      -0.660999      -2.350833       0.261319      -0.318298       0.911262
ITEM: TIMESTEP
3700
ITEM: NUMBER OF ATOMS
5
ITEM: BOX BOUNDS ff ff ff
-5.00000000    5.00000000     
-5.00000000    5.00000000     
-5.00000000    5.00000000     
ITEM: ATOMS id type q x y z mux muy muz
      1   1    1.0000      -3.239451       0.441508       3.231762      -0.476612      -0.849916      -0.224685
      2   2   -1.0000       1.968589       3.546929       1.571873      -0.273698      -0.539234       0.796439
      3   1    1.0000       3.068863       4.190748       0.350186      -0.879166      -0.225533       0.419763
      4   2   -1.0000      -4.045086      -3.924528      -2.107474       0.323829      -0.202204       0.924256
      5   2   -1.0000      -3.921800      -0.675905      -2.336157       0.257375      -0.349536       0.900879
ITEM: TIMESTEP
3800
ITEM: NUMBER OF ATOMS
5
ITEM: BOX BOUNDS ff ff ff
-5.00000000    5.00000000     
-5.00000000    5.00000000     
-5.00000000    5.00000000     
ITEM: ATOMS id type q x y z mux muy muz
      1   1    1.0000      -3.233484       0.434981       3.216788      -0.475030      -0.847535      -0.236708
      2   2   -1.0000       2.039309       3.583746       1.505195      -0.325298      -0.514047       0.793686
      3   1    1.0000       3.044086       4.169432       0.407927      -0.847657      -0.244954       0.470612
      4   2   -1.0000      -4.056385      -3.921267      -2.096563       0.185730      -0.370227       0.910185
      5   2   -1.0000      -3.881304      -0.688140      -2.323157       0.252976      -0.383443       0.888243
ITEM: TIMESTEP
3900
ITEM: NUMBER OF ATOMS
5
ITEM: BOX BOUNDS ff ff ff
-5.00000000    5.00000000     
-5.00000000    5.00000000     
-5.00000000    5.00000000     
ITEM: ATOMS id type q x y z mux muy muz