ITEM: TIMESTEP
0
ITEM: NUMBER OF ATOMS
5
ITEM: BOX BOUNDS ff ff ff
-5.00000000    5.00000000     
-5.00000000    5.00000000     
-5.00000000    5.00000000     
ITEM: ATOMS id type q x y z mux muy muz
      1   1    1.0000       2.166116      -1.498425       2.343566      -0.283227      -0.154559       0.946517
      2   2   -1.0000       4.404327      -4.068846      -1.939582       0.828191       0.452796       0.330266
      3   1    1.0000      -0.366658      -0.019882       0.421697      -0.002668      -0.914258      -0.405125
      4   2   -1.0000      -1.993400       1.672158       1.451172      -0.450523      -0.768749       0.453931
      5   2   -1.0000       0.778298      -3.862315      -0.230237      -0.416596      -0.231183      -0.879206
ITEM: TIMESTEP
100
ITEM: NUMBER OF ATOMS
5
ITEM: BOX BOUNDS ff ff ff
-5.00000000    5.00000000     
-5.00000000    5.00000000     
-5.00000000    5.00000000     
ITEM: ATOMS id type q x y z mux muy muz
      1   1    1.0000       2.171499      -1.502650       2.390299      -0.276370      -0.162960       0.947134
      2   2   -1.0000       4.349447      -4.049392      -2.001861       0.832706       0.442135       0.333344
      3   1    1.0000      -0.358144       0.001522       0.395474      -0.011672      -0.912046      -0.409922
      4   2   -1.0000      -1.960356       1.628135       1.483873      -0.457140      -0.769784       0.445483
      5   2   -1.0000       0.786238      -3.854925      -0.221169      -0.611557      -0.319003      -0.724041
ITEM: TIMESTEP
200
ITEM: NUMBER OF ATOMS
5
ITEM: BOX BOUNDS ff ff ff
-5.00000000    5.00000000     
-5.00000000    5.00000000     
-5.00000000    5.00000000     
ITEM: ATOMS id type q x y z mux muy muz
      1   1    1.0000       2.176951      -1.507211       2.436500      -0.267827      -0.181673       0.946184
      2   2   -1.0000       4.295014      -4.029975      -2.064436       0.836371       0.430287       0.339612
      3   1    1.0000      -0.349087       0.022431       0.368779      -0.028215      -0.906622      -0.421000
      4   2   -1.0000      -1.927508       1.583773       1.516606      -0.467896      -0.767398       0.438376
      5   2   -1.0000       0.793313      -3.846327      -0.210832      -0.757067      -0.394649      -0.520674
ITEM: TIMESTEP
300
ITEM: NUMBER OF ATOMS
5
ITEM: BOX BOUNDS ff ff ff
-5.00000000    5.00000000     
-5.00000000    5.00000000     
-5.00000000    5.00000000     
ITEM: ATOMS id type q x y z mux muy muz
      1   1    1.0000       2.182472      -1.512049       2.482138      -0.257328      -0.211630       0.942865
      2   2   -1.0000       4.241120      -4.010636      -2.127347       0.838623       0.417353       0.350039
      3   1    1.0000      -0.339402       0.042885       0.341612      -0.053584      -0.897059      -0.438650
      4   2   -1.0000      -1.894907       1.539059       1.549371      -0.483450      -0.760801       0.432964
      5   2   -1.0000       0.799400      -3.836568      -0.199158      -0.844134      -0.453521      -0.285930
ITEM: TIMESTEP
400
ITEM: NUMBER OF ATOMS
5
ITEM: BOX BOUNDS ff ff ff
-5.00000000    5.00000000     
-5.00000000    5.00000000     
-5.00000000    5.00000000     
ITEM: ATOMS id type q x y z mux muy muz
      1   1    1.0000       2.188057      -1.517107       2.527184      -0.244492      -0.253524       0.935922
      2   2   -1.0000       4.187853      -3.991411      -2.190614       0.838802       0.403419       0.365601
      3   1    1.0000      -0.329014       0.062934       0.313985      -0.089354      -0.881904      -0.462883
      4   2   -1.0000      -1.862609       1.493972       1.582161      -0.504470      -0.748916       0.429693
      5   2   -1.0000       0.804397      -3.825698      -0.186100      -0.869271      -0.492853      -0.038252
ITEM: TIMESTEP
500
ITEM: NUMBER OF ATOMS
5
ITEM: BOX BOUNDS ff ff ff
-5.00000000    5.00000000     
-5.00000000    5.00000000     
-5.00000000    5.00000000     
ITEM: ATOMS id type q x y z mux muy muz
      1   1    1.0000       2.193695      -1.522326       2.571611      -0.228893      -0.307554       0.923590
      2   2   -1.0000       4.135290      -3.972325      -2.254246       0.836139       0.388546       0.387173
      3   1    1.0000      -0.317866       0.082642       0.285931      -0.137227      -0.859066      -0.493127
      4   2   -1.0000      -1.830671       1.448475       1.614951      -0.531480      -0.730343       0.429101
      5   2   -1.0000       0.808235      -3.813776      -0.171630      -0.834506      -0.511830       0.204034
ITEM: TIMESTEP
600
ITEM: NUMBER OF ATOMS
5
ITEM: BOX BOUNDS ff ff ff
-5.00000000    5.00000000     
-5.00000000    5.00000000     
-5.00000000    5.00000000     
ITEM: ATOMS id type q x y z mux muy muz
      1   1    1.0000       2.199373      -1.527655       2.615397      -0.210166      -0.373108       0.903671
      2   2   -1.0000       4.083494      -3.953395      -2.318233       0.829759       0.372772       0.415381
      3   1    1.0000      -0.305915       0.102085       0.257511      -0.198702      -0.825768      -0.527849
      4   2   -1.0000      -1.799149       1.402512       1.647689      -0.564653      -0.703379       0.431769
      5   2   -1.0000       0.810882      -3.800858      -0.155748      -0.746970      -0.511596       0.424622
ITEM: TIMESTEP
700
ITEM: NUMBER OF ATOMS
5
ITEM: BOX BOUNDS ff ff ff
-5.00000000    5.00000000     
-5.00000000    5.00000000     
-5.00000000    5.00000000     
ITEM: ATOMS id type q x y z mux muy muz
      1   1    1.0000       2.205072      -1.533046       2.658522      -0.188157      -0.448459       0.873774
      2   2   -1.0000       4.032504      -3.934629      -2.382555       0.818728       0.356105       0.450415
      3   1    1.0000      -0.293138       0.121361       0.228836      -0.274578      -0.778674      -0.564158
      4   2   -1.0000      -1.768094       1.356006       1.680294      -0.603542      -0.666098       0.438235
      5   2   -1.0000       0.812341      -3.787002      -0.138480      -0.617815      -0.495019       0.610951
ITEM: TIMESTEP
800
ITEM: NUMBER OF ATOMS
5
ITEM: BOX BOUNDS ff ff ff
-5.00000000    5.00000000     
-5.00000000    5.00000000     
-5.00000000    5.00000000     
ITEM: ATOMS id type q x y z mux muy muz
      1   1    1.0000       2.210774      -1.538460       2.700973      -0.163059      -0.530647       0.831760
      2   2   -1.0000       3.982336      -3.916023      -2.447187       0.802145       0.338545       0.491885
      3   1    1.0000      -0.279531       0.140591       0.200073      -0.364335      -0.714262      -0.597569
      4   2   -1.0000      -1.737544       1.308852       1.712632      -0.646822      -0.616554       0.448868
      5   2   -1.0000       0.812648      -3.772270      -0.119875      -0.460481      -0.466178       0.755405
ITEM: TIMESTEP
900
ITEM: NUMBER OF ATOMS
5
ITEM: BOX BOUNDS ff ff ff
-5.00000000    5.00000000     
-5.00000000    5.00000000     
-5.00000000    5.00000000     
ITEM: ATOMS id type q x y z mux muy muz
      1   1    1.0000       2.216461      -1.543864       2.742745      -0.135506      -0.615690       0.776250
      2   2   -1.0000       3.932978      -3.897566      -2.512103       0.779273       0.320099       0.538767
      3   1    1.0000      -0.265114       0.159922       0.171467      -0.465557      -0.629498      -0.622084
      4   2   -1.0000      -1.707512       1.260917       1.744512      -0.692141      -0.553075       0.463734
      5   2   -1.0000       0.811870      -3.756719      -0.100005      -0.288622      -0.429648       0.855628
ITEM: TIMESTEP
1000
ITEM: NUMBER OF ATOMS
5
ITEM: BOX BOUNDS ff ff ff
-5.00000000    5.00000000     
-5.00000000    5.00000000     
-5.00000000    5.00000000     
ITEM: ATOMS id type q x y z mux muy muz
      1   1    1.0000       2.222113      -1.549233       2.783846      -0.106547      -0.699129       0.707012
      2   2   -1.0000       3.884392      -3.879239      -2.577289       0.749671       0.300807       0.589498
      3   1    1.0000      -0.249938       0.179523       0.143348      -0.573613      -0.522665      -0.630706
      4   2   -1.0000      -1.677976       1.212051       1.775664      -0.736158      -0.474631       0.482491
      5   2   -1.0000       0.810093      -3.740412      -0.078952      -0.114214      -0.389762       0.913805
ITEM: TIMESTEP
1100
ITEM: NUMBER OF ATOMS
5
ITEM: BOX BOUNDS ff ff ff
-5.00000000    5.00000000     
-5.00000000    5.00000000     
-5.00000000    5.00000000     
ITEM: ATOMS id type q x y z mux muy muz
      1   1    1.0000       2.227708      -1.554548       2.824296      -0.077499      -0.776740       0.625035
      2   2   -1.0000       3.836512      -3.861017      -2.642746       0.713270       0.280754       0.642201
      3   1    1.0000      -0.234095       0.199572       0.116138      -0.681726      -0.394176      -0.616340
      4   2   -1.0000      -1.648861       1.162095       1.805736      -0.774801      -0.381202       0.504350
      5   2   -1.0000       0.807419      -3.723411      -0.056807       0.053647      -0.350043       0.935196
ITEM: TIMESTEP
1200
ITEM: NUMBER OF ATOMS
5
ITEM: BOX BOUNDS ff ff ff
-5.00000000    5.00000000     
-5.00000000    5.00000000     
-5.00000000    5.00000000     
ITEM: ATOMS id type q x y z mux muy muz
      1   1    1.0000       2.233222      -1.559792       2.864127      -0.049741      -0.845126       0.532248
      2   2   -1.0000       3.789254      -3.842870      -2.708494       0.670370       0.260072       0.694958
      3   1    1.0000      -0.217724       0.220234       0.090349      -0.781472      -0.247136      -0.572910
      4   2   -1.0000      -1.620023       1.110902       1.834289      -0.803724      -0.274076       0.528119
      5   2   -1.0000       0.803955      -3.705784      -0.033655       0.209069      -0.312941       0.926476
ITEM: TIMESTEP
1300
ITEM: NUMBER OF ATOMS
5
ITEM: BOX BOUNDS ff ff ff
-5.00000000    5.00000000     
-5.00000000    5.00000000     
-5.00000000    5.00000000     
ITEM: ATOMS id type q x y z mux muy muz
      1   1    1.0000       2.238622      -1.564957       2.903381      -0.024518      -0.901995       0.431050
      2   2   -1.0000       3.742519      -3.824766      -2.774574       0.621547       0.238919       0.746054
      3   1    1.0000      -0.201030       0.241637       0.066567      -0.863643      -0.087502      -0.496451
      4   2   -1.0000      -1.591241       1.058374       1.860813      -0.818897      -0.155996       0.552334
      5   2   -1.0000       0.799813      -3.687599      -0.009570       0.349011      -0.279860       0.894355
ITEM: TIMESTEP
1400
ITEM: NUMBER OF ATOMS
5
ITEM: BOX BOUNDS ff ff ff
-5.00000000    5.00000000     
-5.00000000    5.00000000     
-5.00000000    5.00000000     
ITEM: ATOMS id type q x y z mux muy muz
      1   1    1.0000       2.243872      -1.570037       2.942103      -0.002808      -0.946114       0.323822
      2   2   -1.0000       3.696201      -3.806670      -2.841038       0.567511       0.217447       0.794133
      3   1    1.0000      -0.184281       0.263841       0.045417      -0.919355       0.076231      -0.385973
      4   2   -1.0000      -1.562211       1.004487       1.884747      -0.817224      -0.031073       0.575481
      5   2   -1.0000       0.795103      -3.668930       0.015388       0.472587      -0.251346       0.844682
ITEM: TIMESTEP
1500
ITEM: NUMBER OF ATOMS
5
ITEM: BOX BOUNDS ff ff ff
-5.00000000    5.00000000     
-5.00000000    5.00000000     
-5.00000000    5.00000000     
ITEM: ATOMS id type q x y z mux muy muz
      1   1    1.0000       2.248925      -1.575035       2.980333       0.014709      -0.977031       0.212588
      2   2   -1.0000       3.650200      -3.788552      -2.907941       0.508946       0.195770       0.838241
      3   1    1.0000      -0.167819       0.286808       0.027529      -0.941199       0.233787      -0.243900
      4   2   -1.0000      -1.532556       0.949322       1.905522      -0.797081       0.095562       0.596263
      5   2   -1.0000       0.789934      -3.649852       0.041174       0.580310      -0.227360       0.782015
ITEM: TIMESTEP
1600
ITEM: NUMBER OF ATOMS
5
ITEM: BOX BOUNDS ff ff ff
-5.00000000    5.00000000     
-5.00000000    5.00000000     
-5.00000000    5.00000000     
ITEM: ATOMS id type q x y z mux muy muz
      1   1    1.0000       2.253729      -1.579959       3.018098       0.027615      -0.994715       0.098888
      2   2   -1.0000       3.604432      -3.770389      -2.975317       0.446384       0.173935       0.877774
      3   1    1.0000      -0.152054       0.310395       0.013480      -0.924241       0.374166      -0.076012
      4   2   -1.0000      -1.501842       0.893084       1.922603      -0.758631       0.218318       0.613854
      5   2   -1.0000       0.784418      -3.630441       0.067753       0.673426      -0.207525       0.709529
ITEM: TIMESTEP
1700
ITEM: NUMBER OF ATOMS
5
ITEM: BOX BOUNDS ff ff ff
-5.00000000    5.00000000     
-5.00000000    5.00000000     
-5.00000000    5.00000000     
ITEM: ATOMS id type q x y z mux muy muz
      1   1    1.0000       2.258223      -1.584825       3.055403       0.035678      -0.999233      -0.016164
      2   2   -1.0000       3.558844      -3.752167      -3.043170       0.380142       0.151914       0.912367
      3   1    1.0000      -0.137451       0.334348       0.003753      -0.866681       0.486792       0.109080
      4   2   -1.0000      -1.469602       0.836107       1.935534      -0.703853       0.331792       0.628096
      5   2   -1.0000       0.778671      -3.610773       0.095097       0.753381      -0.191340       0.629132
ITEM: TIMESTEP
1800
ITEM: NUMBER OF ATOMS
5
ITEM: BOX BOUNDS ff ff ff
-5.00000000    5.00000000     
-5.00000000    5.00000000     
-5.00000000    5.00000000     
ITEM: ATOMS id type q x y z mux muy muz
      1   1    1.0000       2.262344      -1.589658       3.092228       0.038770      -0.990533      -0.131684
      2   2   -1.0000       3.513413      -3.733886      -3.111456       0.310325       0.129614       0.941753
      3   1    1.0000      -0.124520       0.358322      -0.001304      -0.770120       0.562550       0.300753
      4   2   -1.0000      -1.435366       0.778837       1.943974      -0.636307       0.431342       0.639576
      5   2   -1.0000       0.772812      -3.590925       0.123173       0.821438      -0.178319       0.541703
ITEM: TIMESTEP
1900
ITEM: NUMBER OF ATOMS
5
ITEM: BOX BOUNDS ff ff ff
-5.00000000    5.00000000     
-5.00000000    5.00000000     
-5.00000000    5.00000000     
ITEM: ATOMS id type q x y z mux muy muz
      1   1    1.0000       2.266023      -1.594494       3.128528       0.036809      -0.968373      -0.246777
      2   2   -1.0000       3.468162      -3.715560      -3.180073       0.236893       0.106892       0.965638
      3   1    1.0000      -0.113788       0.381908      -0.001500      -0.639491       0.594606       0.487334
      4   2   -1.0000      -1.398686       0.721802       1.947724      -0.560704       0.513470       0.649584
      5   2   -1.0000       0.766972      -3.570966       0.151938       0.878408      -0.168083       0.447378
ITEM: TIMESTEP
2000
ITEM: NUMBER OF ATOMS
5
ITEM: BOX BOUNDS ff ff ff
-5.00000000    5.00000000     
-5.00000000    5.00000000     
-5.00000000    5.00000000     
ITEM: ATOMS id type q x y z mux muy muz
      1   1    1.0000       2.269193      -1.599377       3.164229       0.029735      -0.932366      -0.360291
      2   2   -1.0000       3.423150      -3.697220      -3.248863       0.159764       0.083590       0.983610
      3   1    1.0000      -0.105789       0.404670       0.003197      -0.482740       0.578999       0.657056
      4   2   -1.0000      -1.359157       0.665577       1.946723      -0.482419       0.575953       0.659962
      5   2   -1.0000       0.761287      -3.550961       0.181331       0.924473      -0.160397       0.345864
ITEM: TIMESTEP
2100
ITEM: NUMBER OF ATOMS
5
ITEM: BOX BOUNDS ff ff ff
-5.00000000    5.00000000     
-5.00000000    5.00000000     
-5.00000000    5.00000000     
ITEM: ATOMS id type q x y z mux muy muz
      1   1    1.0000       2.271787      -1.604358       3.199235       0.017532      -0.882154      -0.470634
      2   2   -1.0000       3.378475      -3.678910      -3.317606       0.078956       0.059574       0.995096
      3   1    1.0000      -0.101045       0.426183       0.012685      -0.310348       0.515049       0.799005
      4   2   -1.0000      -1.316434       0.610739       1.941031      -0.407015       0.617739       0.672858
      5   2   -1.0000       0.755901      -3.530963       0.211271       0.959095      -0.155171       0.236766
ITEM: TIMESTEP
2200
ITEM: NUMBER OF ATOMS
5
ITEM: BOX BOUNDS ff ff ff
-5.00000000    5.00000000     
-5.00000000    5.00000000     
-5.00000000    5.00000000     
ITEM: ATOMS id type q x y z mux muy muz
      1   1    1.0000       2.273745      -1.609496       3.233431       0.000267      -0.817663      -0.575696
      2   2   -1.0000       3.334273      -3.660691      -3.386027      -0.005278       0.034765       0.999382
      3   1    1.0000      -0.100062       0.446064       0.026766      -0.134698       0.405610       0.904067
      4   2   -1.0000      -1.270232       0.557831       1.930794      -0.339851       0.638645       0.690386
      5   2   -1.0000       0.750959      -3.511017       0.241653       0.981009      -0.152436       0.119940
ITEM: TIMESTEP
2300
ITEM: NUMBER OF ATOMS
5
ITEM: BOX BOUNDS ff ff ff
-5.00000000    5.00000000     
-5.00000000    5.00000000     
-5.00000000    5.00000000     
ITEM: ATOMS id type q x y z mux muy muz
      1   1    1.0000       2.275014      -1.614849       3.266672      -0.021842      -0.739388      -0.672925
      2   2   -1.0000       3.290719      -3.642641      -3.453789      -0.092330       0.009181       0.995686
      3   1    1.0000      -0.103322       0.463998       0.045200       0.030761       0.257112       0.965892
      4   2   -1.0000      -1.220332       0.507345       1.916195      -0.285781       0.638933       0.714209
      5   2   -1.0000       0.746605      -3.491163       0.272338       0.988327      -0.152290      -0.004149
ITEM: TIMESTEP
2400
ITEM: NUMBER OF ATOMS
5
ITEM: BOX BOUNDS ff ff ff
-5.00000000    5.00000000     
-5.00000000    5.00000000     
-5.00000000    5.00000000     
ITEM: ATOMS id type q x y z mux muy muz
      1   1    1.0000       2.275549      -1.620470       3.298788      -0.048379      -0.648636      -0.759559
      2   2   -1.0000       3.248030      -3.624854      -3.520487      -0.181165      -0.017038       0.983305
      3   1    1.0000      -0.111286       0.479754       0.067774       0.172590       0.079296       0.981797
      4   2   -1.0000      -1.166582       0.459699       1.897389      -0.248905       0.618864       0.745019
      5   2   -1.0000       0.742972      -3.471439       0.303153       0.978797      -0.154830      -0.134107
ITEM: TIMESTEP
2500
ITEM: NUMBER OF ATOMS
5
ITEM: BOX BOUNDS ff ff ff
-5.00000000    5.00000000     
-5.00000000    5.00000000     
-5.00000000    5.00000000     
ITEM: ATOMS id type q x y z mux muy muz
      1   1    1.0000       2.275320      -1.626398       3.329562      -0.078698      -0.547637      -0.833007
      2   2   -1.0000       3.206480      -3.607450      -3.585634      -0.270345      -0.043625       0.961775
      3   1    1.0000      -0.124384       0.493195       0.094369       0.278602      -0.115472       0.953440
      4   2   -1.0000      -1.108907       0.415241       1.874444      -0.232330       0.578384       0.781981
      5   2   -1.0000       0.740175      -3.451897       0.333876       0.950196      -0.160073      -0.267404
ITEM: TIMESTEP
2600
ITEM: NUMBER OF ATOMS
5
ITEM: BOX BOUNDS ff ff ff
-5.00000000    5.00000000     
-5.00000000    5.00000000     
-5.00000000    5.00000000     
ITEM: ATOMS id type q x y z mux muy muz
      1   1    1.0000       2.274314      -1.632648       3.358727      -0.111956      -0.439441      -0.891267
      2   2   -1.0000       3.166409      -3.590582      -3.648639      -0.358144      -0.070208       0.931023
      3   1    1.0000      -0.143000       0.504297       0.125043       0.339107      -0.313278       0.887053
      4   2   -1.0000      -1.047339       0.374238       1.847256      -0.237832       0.517097       0.822221
      5   2   -1.0000       0.738300      -3.432615       0.364230       0.900839      -0.167885      -0.400379
ITEM: TIMESTEP
2700
ITEM: NUMBER OF ATOMS
5
ITEM: BOX BOUNDS ff ff ff
-5.00000000    5.00000000     
-5.00000000    5.00000000     
-5.00000000    5.00000000     
ITEM: ATOMS id type q x y z mux muy muz
      1   1    1.0000       2.272547      -1.639198       3.385950      -0.147182      -0.327606      -0.933280
      2   2   -1.0000       3.128238      -3.574434      -3.708787      -0.442766      -0.096351       0.891445
      3   1    1.0000      -0.167414       0.513162       0.160117       0.347893      -0.499941       0.793114
      4   2   -1.0000      -0.982072       0.336878       1.815469      -0.265356       0.434693       0.860598
      5   2   -1.0000       0.737386      -3.413718       0.393867       0.830064      -0.177939      -0.528518
ITEM: TIMESTEP
2800
ITEM: NUMBER OF ATOMS
5
ITEM: BOX BOUNDS ff ff ff
-5.00000000    5.00000000     
-5.00000000    5.00000000     
-5.00000000    5.00000000     
ITEM: ATOMS id type q x y z mux muy muz
      1   1    1.0000       2.270070      -1.645977       3.410830      -0.183387      -0.215712      -0.959082
      2   2   -1.0000       3.092479      -3.559237      -3.765227      -0.522611      -0.121628       0.843851
      3   1    1.0000      -0.197701       0.520040       0.200291       0.302760      -0.662109       0.685528
      4   2   -1.0000      -0.913580       0.303256       1.778357      -0.312360       0.331863       0.890112
      5   2   -1.0000       0.737416      -3.395392       0.422366       0.738520      -0.189715      -0.646990
ITEM: TIMESTEP
2900
ITEM: NUMBER OF ATOMS
5
ITEM: BOX BOUNDS ff ff ff
-5.00000000    5.00000000     
-5.00000000    5.00000000     
-5.00000000    5.00000000     
ITEM: ATOMS id type q x y z mux muy muz
      1   1    1.0000       2.266985      -1.652860       3.432913      -0.219693      -0.106857      -0.969699
      2   2   -1.0000       3.059732      -3.545257      -3.816979      -0.596505      -0.145694       0.789275
      3   1    1.0000      -0.233542       0.525332       0.246778       0.205660      -0.787760       0.580637
      4   2   -1.0000      -0.842798       0.273380       1.734682      -0.373148       0.211499       0.903343
      5   2   -1.0000       0.738306      -3.377906       0.449222       0.628128      -0.202542      -0.751287
ITEM: TIMESTEP
3000
ITEM: NUMBER OF ATOMS
5
ITEM: BOX BOUNDS ff ff ff
-5.00000000    5.00000000     
-5.00000000    5.00000000     
-5.00000000    5.00000000     
ITEM: ATOMS id type q x y z mux muy muz
      1   1    1.0000       2.263455      -1.659656       3.451722      -0.255417      -0.003265      -0.966825
      2   2   -1.0000       3.030661      -3.532793      -3.862969      -0.663845      -0.168326       0.728681
      3   1    1.0000      -0.273916       0.529538       0.301493       0.062846      -0.865751       0.496513
      4   2   -1.0000      -0.771407       0.247208       1.682507      -0.438436       0.079677       0.895224
      5   2   -1.0000       0.739891      -3.361608       0.473864       0.501671      -0.215663      -0.837744
ITEM: TIMESTEP
3100
ITEM: NUMBER OF ATOMS
5
ITEM: BOX BOUNDS ff ff ff
-5.00000000    5.00000000     
-5.00000000    5.00000000     
-5.00000000    5.00000000     
ITEM: ATOMS id type q x y z mux muy muz
      1   1    1.0000       2.259708      -1.666117       3.466816      -0.290097       0.093786      -0.952391
      2   2   -1.0000       3.005957      -3.522157      -3.902095      -0.724533      -0.189431       0.662698
      3   1    1.0000      -0.316630       0.533053       0.367342      -0.113873      -0.884232       0.452953
      4   2   -1.0000      -0.702285       0.224845       1.618893      -0.495107      -0.054253       0.867136
      5   2   -1.0000       0.741934      -3.346934       0.495661       0.362274      -0.228278      -0.903685
ITEM: TIMESTEP
3200
ITEM: NUMBER OF ATOMS
5
ITEM: BOX BOUNDS ff ff ff
-5.00000000    5.00000000     
-5.00000000    5.00000000     
-5.00000000    5.00000000     
ITEM: ATOMS id type q x y z mux muy muz
      1   1    1.0000       2.256053      -1.671938       3.477853      -0.323321       0.183407      -0.928346
      2   2   -1.0000       2.986292      -3.513657      -3.933286      -0.778582      -0.208915       0.591748
      3   1    1.0000      -0.357626       0.535508       0.448853      -0.302132      -0.828254       0.471923
      4   2   -1.0000      -0.640174       0.207184       1.539257      -0.525094      -0.178936       0.832020
      5   2   -1.0000       0.744139      -3.334407       0.513940       0.213591      -0.239518      -0.947106
ITEM: TIMESTEP
3300
ITEM: NUMBER OF ATOMS
5
ITEM: BOX BOUNDS ff ff ff
-5.00000000    5.00000000     
-5.00000000    5.00000000     
-5.00000000    5.00000000     
ITEM: ATOMS id type q x y z mux muy muz
      1   1    1.0000       2.252886      -1.676754       3.484674      -0.354052       0.263053      -0.897469
      2   2   -1.0000       2.972303      -3.507582      -3.955539      -0.825040      -0.226285       0.517788
      3   1    1.0000      -0.387436       0.537532       0.542565      -0.454179      -0.681301       0.574065
      4   2   -1.0000      -0.595232       0.194152       1.446970      -0.500314      -0.283450       0.818133
      5   2   -1.0000       0.746163      -3.324657       0.527947       0.062981      -0.248383      -0.966612
ITEM: TIMESTEP
3400
ITEM: NUMBER OF ATOMS
5
ITEM: BOX BOUNDS ff ff ff
-5.00000000    5.00000000     
-5.00000000    5.00000000     
-5.00000000    5.00000000     
ITEM: ATOMS id type q x y z mux muy muz
      1   1    1.0000       2.249305      -1.682203       3.489934      -0.379405       0.324894      -0.866312
      2   2   -1.0000       2.958920      -3.501743      -3.976934      -0.860521      -0.239996       0.449338
      3   1    1.0000      -0.370348       0.597708       0.524157      -0.490453      -0.464614       0.737285
      4   2   -1.0000      -0.597746       0.123278       1.466815      -0.390724      -0.365559       0.844809
      5   2   -1.0000       0.748553      -3.314349       0.542645      -0.070440      -0.254068      -0.964618
ITEM: TIMESTEP
3500
ITEM: NUMBER OF ATOMS
5
ITEM: BOX BOUNDS ff ff ff
-5.00000000    5.00000000     
-5.00000000    5.00000000     
-5.00000000    5.00000000     
ITEM: ATOMS id type q x y z mux muy muz
      1   1    1.0000       2.246079      -1.687295       3.492821      -0.398730       0.366290      -0.840741
      2   2   -1.0000       2.948530      -3.497181      -3.993669      -0.885180      -0.249785       0.392510
      3   1    1.0000      -0.343575       0.644535       0.505795      -0.424237      -0.267582       0.865114
      4   2   -1.0000      -0.613179       0.068092       1.486316      -0.239993      -0.441097       0.864775
      5   2   -1.0000       0.750828      -3.305461       0.555353      -0.176077      -0.257320      -0.950149
ITEM: TIMESTEP
3600
ITEM: NUMBER OF ATOMS
5
ITEM: BOX BOUNDS ff ff ff
-5.00000000    5.00000000     
-5.00000000    5.00000000     
-5.00000000    5.00000000     
ITEM: ATOMS id type q x y z mux muy muz
      1   1    1.0000       2.239004      -1.698984       3.496517      -0.416391       0.396216      -0.818310
      2   2   -1.0000       2.927949      -3.488083      -4.027067      -0.905237      -0.257934       0.337663
      3   1    1.0000      -0.303809       0.683229       0.545279      -0.309091      -0.120197       0.943406
      4   2   -1.0000      -0.630546       0.012851       1.449037      -0.079019      -0.528322       0.845359
      5   2   -1.0000       0.756086      -3.286324       0.582851      -0.273004      -0.259546      -0.926339
ITEM: TIMESTEP
3700
ITEM: NUMBER OF ATOMS
5
ITEM: BOX BOUNDS ff ff ff
-5.00000000    5.00000000     
-5.00000000    5.00000000     
-5.00000000    5.00000000     
ITEM: ATOMS id type q x y z mux muy muz
      1   1    1.0000       2.230897      -1.712993       3.499139      -0.435511       0.418987      -0.796731
      2   2   -1.0000       2.905536      -3.478124      -4.063634      -0.923766      -0.265694       0.275794
      3   1    1.0000      -0.280110       0.681507       0.626350      -0.186174      -0.052545       0.981111
      4   2   -1.0000      -0.630006      -0.003400       1.370200       0.066571      -0.647141       0.759458
      5   2   -1.0000       0.762367      -3.264300       0.614562      -0.375343      -0.261080      -0.889356
ITEM: TIMESTEP
3800
ITEM: NUMBER OF ATOMS
5
ITEM: BOX BOUNDS ff ff ff
-5.00000000    5.00000000     
-5.00000000    5.00000000     
-5.00000000    5.00000000     
ITEM: ATOMS id type q x y z mux muy muz
      1   1    1.0000       2.223823      -1.725976       3.500134      -0.457459       0.434636      -0.775773
      2   2   -1.0000       2.886739      -3.469726      -4.094484      -0.940536      -0.273142       0.201955
      3   1    1.0000      -0.268212       0.675727       0.676049      -0.117318      -0.120413       0.985767
      4   2   -1.0000      -0.621760      -0.012695       1.322111       0.138844      -0.805932       0.575496
      5   2   -1.0000       0.768094      -3.244641       0.642807      -0.486288      -0.261822      -0.833651
ITEM: TIMESTEP
3900
ITEM: NUMBER OF ATOMS
5
ITEM: BOX BOUNDS ff ff ff
-5.00000000    5.00000000     
-5.00000000    5.00000000     
-5.00000000    5.00000000     
ITEM: ATOMS id type q x y z mux muy muz