ITEM: TIMESTEP
0
ITEM: NUMBER OF ATOMS
5
ITEM: BOX BOUNDS ff ff ff
-5.00000000    5.00000000     
-5.00000000    5.00000000     
-5.00000000    5.00000000     
ITEM: ATOMS id type q x y z mux muy muz
      1   1    1.0000       2.644553       2.576077       0.256359       0.064857      -0.996478       0.053152
      2   2   -1.0000       1.247373       2.575273       3.410235       0.875257      -0.178462      -0.449529
      3   1    1.0000       2.618550      -1.459874       4.967513      -0.802487       0.596463       0.015709
      4   2   -1.0000      -0.655687      -4.756030      -1.374028      -0.791654      -0.082660      -0.605353
      5   2   -1.0000      -3.722079      -3.785215      -2.184699       0.802345      -0.204801       0.560624
ITEM: TIMESTEP
100
ITEM: NUMBER OF ATOMS
5
ITEM: BOX BOUNDS ff ff ff
-5.00000000    5.00000000     
-5.00000000    5.00000000     
-5.00000000    5.00000000     
ITEM: ATOMS id type q x y z mux muy muz
      1   1    1.0000       2.666773       2.599973       0.260358       0.201122      -0.972764       0.115240
      2   2   -1.0000       1.245571       2.575312       3.406031       0.875565      -0.176898      -0.449547
      3   1    1.0000       2.660263      -1.452099       4.992362      -0.802392       0.596572       0.016397
      4   2   -1.0000      -0.726840      -4.823645      -1.393664      -0.794316      -0.085540      -0.601453
      5   2   -1.0000      -3.713056      -3.749309      -2.189707       0.799778      -0.205997       0.563844
ITEM: TIMESTEP
200
ITEM: NUMBER OF ATOMS
5
ITEM: BOX BOUNDS ff ff ff
-5.00000000    5.00000000     
-5.00000000    5.00000000     
-5.00000000    5.00000000     
ITEM: ATOMS id type q x y z mux muy muz
      1   1    1.0000       2.688657       2.624039       0.264297       0.329344      -0.927686       0.175873
      2   2   -1.0000       1.244399       2.574867       3.401790       0.876656      -0.171547      -0.449495
      3   1    1.0000       2.701724      -1.444070       4.982718      -0.803074       0.595652       0.016445
      4   2   -1.0000      -0.797913      -4.891454      -1.413157      -0.796441      -0.087409      -0.598366
      5   2   -1.0000      -3.704157      -3.713151      -2.194801       0.798100      -0.206959       0.565867
ITEM: TIMESTEP
300
ITEM: NUMBER OF ATOMS
5
ITEM: BOX BOUNDS ff ff ff
-5.00000000    5.00000000     
-5.00000000    5.00000000     
-5.00000000    5.00000000     
ITEM: ATOMS id type q x y z mux muy muz
      1   1    1.0000       2.710199       2.648279       0.268158       0.447028      -0.863402       0.233887
      2   2   -1.0000       1.243872       2.573947       3.397531       0.878113      -0.163651      -0.449595
      3   1    1.0000       2.742910      -1.435793       4.957643      -0.804351       0.593937       0.016079
      4   2   -1.0000      -0.868884      -4.959453      -1.432501      -0.798190      -0.088422      -0.595881
      5   2   -1.0000      -3.695386      -3.676748      -2.199981       0.797080      -0.207764       0.567007
ITEM: TIMESTEP
400
ITEM: NUMBER OF ATOMS
5
ITEM: BOX BOUNDS ff ff ff
-5.00000000    5.00000000     
-5.00000000    5.00000000     
-5.00000000    5.00000000     
ITEM: ATOMS id type q x y z mux muy muz
      1   1    1.0000       2.731398       2.672697       0.271924       0.552222      -0.782256       0.288319
      2   2   -1.0000       1.244006       2.572559       3.393271       0.879642      -0.154102      -0.449980
      3   1    1.0000       2.783796      -1.427278       4.932414      -0.806090       0.591591       0.015461
      4   2   -1.0000      -0.939742      -4.972346      -1.451696      -0.799677      -0.088699      -0.593842
      5   2   -1.0000      -3.686746      -3.640101      -2.205251       0.796547      -0.208484       0.567492
ITEM: TIMESTEP
500
ITEM: NUMBER OF ATOMS
5
ITEM: BOX BOUNDS ff ff ff
-5.00000000    5.00000000     
-5.00000000    5.00000000     
-5.00000000    5.00000000     
ITEM: ATOMS id type q x y z mux muy muz
      1   1    1.0000       2.752248       2.697294       0.275582       0.643421      -0.686668       0.338372
      2   2   -1.0000       1.244813       2.570714       3.389024       0.881035      -0.143560      -0.450741
      3   1    1.0000       2.824355      -1.418532       4.907042      -0.808190       0.588739       0.014680
      4   2   -1.0000      -1.010462      -4.903883      -1.470736      -0.800971      -0.088361      -0.592146
      5   2   -1.0000      -3.678243      -3.603220      -2.210610       0.796368      -0.209111       0.567512
ITEM: TIMESTEP
600
ITEM: NUMBER OF ATOMS
5
ITEM: BOX BOUNDS ff ff ff
-5.00000000    5.00000000     
-5.00000000    5.00000000     
-5.00000000    5.00000000     
ITEM: ATOMS id type q x y z mux muy muz
      1   1    1.0000       2.772745       2.722064       0.279123       0.719507      -0.579063       0.383400
      2   2   -1.0000       1.246307       2.568426       3.384805       0.882153      -0.132520      -0.451935
      3   1    1.0000       2.864563      -1.409561       4.881531      -0.810572       0.585478       0.013777
      4   2   -1.0000      -1.081018      -4.835171      -1.489617      -0.802104      -0.087540      -0.590734
      5   2   -1.0000      -3.669887      -3.566108      -2.216059       0.796445      -0.209555       0.567241
ITEM: TIMESTEP
700
ITEM: NUMBER OF ATOMS
5
ITEM: BOX BOUNDS ff ff ff
-5.00000000    5.00000000     
-5.00000000    5.00000000     
-5.00000000    5.00000000     
ITEM: ATOMS id type q x y z mux muy muz
      1   1    1.0000       2.792891       2.747009       0.282542       0.779685      -0.461806       0.422879
      2   2   -1.0000       1.248503       2.565706       3.380623       0.882910      -0.121348      -0.453590
      3   1    1.0000       2.904407      -1.400370       4.855877      -0.813172       0.581884       0.012772
      4   2   -1.0000      -1.151403      -4.766222      -1.508342      -0.803088      -0.086346      -0.589572
      5   2   -1.0000      -3.661686      -3.528759      -2.221599       0.796701      -0.209741       0.566812
ITEM: TIMESTEP
800
ITEM: NUMBER OF ATOMS
5
ITEM: BOX BOUNDS ff ff ff
-5.00000000    5.00000000     
-5.00000000    5.00000000     
-5.00000000    5.00000000     
ITEM: ATOMS id type q x y z mux muy muz
      1   1    1.0000       2.812687       2.772130       0.285841       0.823424      -0.337172       0.456385
      2   2   -1.0000       1.251411       2.562569       3.376487       0.883265      -0.110315      -0.455711
      3   1    1.0000       2.943877      -1.390959       4.830073      -0.815939       0.578021       0.011671
      4   2   -1.0000      -1.221615      -4.697049      -1.526917      -0.803926      -0.084875      -0.588642
      5   2   -1.0000      -3.653649      -3.491163      -2.227228       0.797079      -0.209602       0.566333
ITEM: TIMESTEP
900
ITEM: NUMBER OF ATOMS
5
ITEM: BOX BOUNDS ff ff ff
-5.00000000    5.00000000     
-5.00000000    5.00000000     
-5.00000000    5.00000000     
ITEM: ATOMS id type q x y z mux muy muz
      1   1    1.0000       2.832136       2.797427       0.289020       0.850398      -0.207346       0.483560
      2   2   -1.0000       1.255045       2.559026       3.372401       0.883205      -0.099619      -0.458286
      3   1    1.0000       2.982962      -1.381331       4.804114      -0.818830       0.573941       0.010475
      4   2   -1.0000      -1.291646      -4.627668      -1.545346      -0.804612      -0.083216      -0.587941
      5   2   -1.0000      -3.645786      -3.453308      -2.232946       0.797531      -0.209078       0.565889
ITEM: TIMESTEP
1000
ITEM: NUMBER OF ATOMS
5
ITEM: BOX BOUNDS ff ff ff
-5.00000000    5.00000000     
-5.00000000    5.00000000     
-5.00000000    5.00000000     
ITEM: ATOMS id type q x y z mux muy muz
      1   1    1.0000       2.851240       2.822896       0.292088       0.860434      -0.074436       0.504096
      2   2   -1.0000       1.259416       2.555093       3.368368       0.882735      -0.089406      -0.461287
      3   1    1.0000       3.021654      -1.371487       4.777992      -0.821809       0.569690       0.009180
      4   2   -1.0000      -1.361493      -4.558097      -1.563638      -0.805131      -0.081455      -0.587478
      5   2   -1.0000      -3.638106      -3.415180      -2.238750       0.798020      -0.208111       0.565556
ITEM: TIMESTEP
1100
ITEM: NUMBER OF ATOMS
5
ITEM: BOX BOUNDS ff ff ff
-5.00000000    5.00000000     
-5.00000000    5.00000000     
-5.00000000    5.00000000     
ITEM: ATOMS id type q x y z mux muy muz
      1   1    1.0000       2.870002       2.848535       0.295054       0.853483       0.059502       0.517712
      2   2   -1.0000       1.264534       2.550781       3.364388       0.881877      -0.079782      -0.464680
      3   1    1.0000       3.059943      -1.361426       4.751701      -0.824843       0.565308       0.007779
      4   2   -1.0000      -1.431148      -4.488358      -1.581803      -0.805460      -0.079685      -0.587268
      5   2   -1.0000      -3.630620      -3.376761      -2.244635       0.798513      -0.206640       0.565400
ITEM: TIMESTEP
1200
ITEM: NUMBER OF ATOMS
5
ITEM: BOX BOUNDS ff ff ff
-5.00000000    5.00000000     
-5.00000000    5.00000000     
-5.00000000    5.00000000     
ITEM: ATOMS id type q x y z mux muy muz
      1   1    1.0000       2.888423       2.874337       0.297930       0.829607       0.192417       0.524145
      2   2   -1.0000       1.270410       2.546103       3.360457       0.880664      -0.070819      -0.468419
      3   1    1.0000       3.097823      -1.351149       4.725234      -0.827907       0.560831       0.006266
      4   2   -1.0000      -1.500606      -4.418474      -1.599851      -0.805574      -0.078002      -0.587339
      5   2   -1.0000      -3.623340      -3.338028      -2.250592       0.798978      -0.204598       0.565485
ITEM: TIMESTEP
1300
ITEM: NUMBER OF ATOMS
5
ITEM: BOX BOUNDS ff ff ff
-5.00000000    5.00000000     
-5.00000000    5.00000000     
-5.00000000    5.00000000     
ITEM: ATOMS id type q x y z mux muy muz
      1   1    1.0000       2.906505       2.900297       0.300732       0.788980       0.322227       0.523144
      2   2   -1.0000       1.277055       2.541071       3.356572       0.879132      -0.062568      -0.472453
      3   1    1.0000       3.135289      -1.340652       4.698581      -0.830974       0.556292       0.004636
      4   2   -1.0000      -1.569859      -4.348475      -1.617799      -0.805436      -0.076517      -0.587722
      5   2   -1.0000      -3.616278      -3.298955      -2.256614       0.799387      -0.201909       0.565874
ITEM: TIMESTEP
1400
ITEM: NUMBER OF ATOMS
5
ITEM: BOX BOUNDS ff ff ff
-5.00000000    5.00000000     
-5.00000000    5.00000000     
-5.00000000    5.00000000     
ITEM: ATOMS id type q x y z mux muy muz
      1   1    1.0000       2.924248       2.926407       0.303477       0.731913       0.446780       0.514482
      2   2   -1.0000       1.284477       2.535698       3.352724       0.877327      -0.055055      -0.476725
      3   1    1.0000       3.172334      -1.329934       4.671737      -0.834023       0.551722       0.002884
      4   2   -1.0000      -1.638899      -4.278394      -1.635664      -0.805006      -0.075356      -0.588461
      5   2   -1.0000      -3.609449      -3.259507      -2.262685       0.799706      -0.198480       0.566635
ITEM: TIMESTEP
1500
ITEM: NUMBER OF ATOMS
5
ITEM: BOX BOUNDS ff ff ff
-5.00000000    5.00000000     
-5.00000000    5.00000000     
-5.00000000    5.00000000     
ITEM: ATOMS id type q x y z mux muy muz
      1   1    1.0000       2.941652       2.952660       0.306186       0.658891       0.563820       0.497965
      2   2   -1.0000       1.292688       2.529994       3.348903       0.875294      -0.048292      -0.481175
      3   1    1.0000       3.208955      -1.318991       4.644692      -0.837034       0.547150       0.001010
      4   2   -1.0000      -1.707716      -4.208270      -1.653469      -0.804234      -0.074665      -0.589604
      5   2   -1.0000      -3.602868      -3.219641      -2.268790       0.799903      -0.194203       0.567838
ITEM: TIMESTEP
1600
ITEM: NUMBER OF ATOMS
5
ITEM: BOX BOUNDS ff ff ff
-5.00000000    5.00000000     
-5.00000000    5.00000000     
-5.00000000    5.00000000     
ITEM: ATOMS id type q x y z mux muy muz
      1   1    1.0000       2.958717       2.979045       0.308880       0.570638       0.670974       0.473462
      2   2   -1.0000       1.301696       2.523969       3.345097       0.873083      -0.042271      -0.485735
      3   1    1.0000       3.245151      -1.307818       4.617439      -0.839989       0.542603      -0.000986
      4   2   -1.0000      -1.776302      -4.138151      -1.671242      -0.803059      -0.074619      -0.591209
      5   2   -1.0000      -3.596552      -3.179303      -2.274906       0.799938      -0.188943       0.569560
ITEM: TIMESTEP
1700
ITEM: NUMBER OF ATOMS
5
ITEM: BOX BOUNDS ff ff ff
-5.00000000    5.00000000     
-5.00000000    5.00000000     
-5.00000000    5.00000000     
ITEM: ATOMS id type q x y z mux muy muz
      1   1    1.0000       2.975441       3.005553       0.311582       0.468175       0.765757       0.440941
      2   2   -1.0000       1.311513       2.517632       3.341291       0.870748      -0.036972      -0.490338
      3   1    1.0000       3.280921      -1.296410       4.589970      -0.842871       0.538107      -0.003099
      4   2   -1.0000      -1.844644      -4.068096      -1.689018      -0.801409      -0.075426      -0.593341
      5   2   -1.0000      -3.590520      -3.138426      -2.281003       0.799765      -0.182535       0.571889
ITEM: TIMESTEP
1800
ITEM: NUMBER OF ATOMS
5
ITEM: BOX BOUNDS ff ff ff
-5.00000000    5.00000000     
-5.00000000    5.00000000     
-5.00000000    5.00000000     
ITEM: ATOMS id type q x y z mux muy muz
      1   1    1.0000       2.991821       3.032174       0.314318       0.352904       0.845609       0.400504
      2   2   -1.0000       1.322148       2.510992       3.337468       0.868341      -0.032357      -0.494910
      3   1    1.0000       3.316267      -1.284760       4.562279      -0.845666       0.533686      -0.005321
      4   2   -1.0000      -1.912732      -3.998177      -1.706840      -0.799195      -0.077338      -0.596076
      5   2   -1.0000      -3.584792      -3.096925      -2.287046       0.799326      -0.174772       0.574919
ITEM: TIMESTEP
1900
ITEM: NUMBER OF ATOMS
5
ITEM: BOX BOUNDS ff ff ff
-5.00000000    5.00000000     
-5.00000000    5.00000000     
-5.00000000    5.00000000     
ITEM: ATOMS id type q x y z mux muy muz
      1   1    1.0000       3.007852       3.058897       0.317111       0.226671       0.907966       0.352445
      2   2   -1.0000       1.333612       2.504056       3.333609       0.865918      -0.028373      -0.499380
      3   1    1.0000       3.351189      -1.272862       4.534357      -0.848362       0.529362      -0.007638
      4   2   -1.0000      -1.980554      -3.928484      -1.724761      -0.796304      -0.080660      -0.599495
      5   2   -1.0000      -3.579389      -3.054697      -2.292987       0.798552      -0.165398       0.578756
ITEM: TIMESTEP
2000
ITEM: NUMBER OF ATOMS
5
ITEM: BOX BOUNDS ff ff ff
-5.00000000    5.00000000     
-5.00000000    5.00000000     
-5.00000000    5.00000000     
ITEM: ATOMS id type q x y z mux muy muz
      1   1    1.0000       3.023530       3.085711       0.319988       0.091827       0.950362       0.297288
      2   2   -1.0000       1.345917       2.496830       3.329695       0.863533      -0.024953      -0.503674
      3   1    1.0000       3.385692      -1.260706       4.506199      -0.850947       0.525156      -0.010035
      4   2   -1.0000      -2.048101      -3.859128      -1.742851      -0.792596      -0.085768      -0.603684
      5   2   -1.0000      -3.574326      -3.011610      -2.298765       0.797351      -0.154092       0.583513
ITEM: TIMESTEP
2100
ITEM: NUMBER OF ATOMS
5
ITEM: BOX BOUNDS ff ff ff
-5.00000000    5.00000000     
-5.00000000    5.00000000     
-5.00000000    5.00000000     
ITEM: ATOMS id type q x y z mux muy muz
      1   1    1.0000       3.038846       3.112603       0.322971      -0.048741       0.970569       0.235839
      2   2   -1.0000       1.359074       2.489319       3.325704       0.861242      -0.022013      -0.507719
      3   1    1.0000       3.419777      -1.248284       4.477803      -0.853414       0.521084      -0.012489
      4   2   -1.0000      -2.115370      -3.790253      -1.761195      -0.787891      -0.093120      -0.608734
      5   2   -1.0000      -3.569615      -2.967509      -2.304297       0.795606      -0.140450       0.589309
ITEM: TIMESTEP
2200
ITEM: NUMBER OF ATOMS
5
ITEM: BOX BOUNDS ff ff ff
-5.00000000    5.00000000     
-5.00000000    5.00000000     
-5.00000000    5.00000000     
ITEM: ATOMS id type q x y z mux muy muz
      1   1    1.0000       3.053790       3.139560       0.326084      -0.191619       0.966773       0.169211
      2   2   -1.0000       1.373093       2.481528       3.321615       0.859095      -0.019453      -0.511446
      3   1    1.0000       3.453445      -1.235590       4.449167      -0.855756       0.517163      -0.014972
      4   2   -1.0000      -2.182368      -3.722039      -1.779905      -0.781951      -0.103280      -0.614724
      5   2   -1.0000      -3.565249      -2.922202      -2.309477       0.793159      -0.123970       0.596263
ITEM: TIMESTEP
2300
ITEM: NUMBER OF ATOMS
5
ITEM: BOX BOUNDS ff ff ff
-5.00000000    5.00000000     
-5.00000000    5.00000000     
-5.00000000    5.00000000     
ITEM: ATOMS id type q x y z mux muy muz
      1   1    1.0000       3.068349       3.166565       0.329347      -0.332928       0.937758       0.098843
      2   2   -1.0000       1.387983       2.473460       3.317406       0.857144      -0.017158      -0.514790
      3   1    1.0000       3.486693      -1.222616       4.420298      -0.857970       0.513403      -0.017454
      4   2   -1.0000      -2.249125      -3.654714      -1.799127      -0.774467      -0.116934      -0.621714
      5   2   -1.0000      -3.561189      -2.875473      -2.314157       0.789799      -0.104034       0.604478
ITEM: TIMESTEP
2400
ITEM: NUMBER OF ATOMS
5
ITEM: BOX BOUNDS ff ff ff
-5.00000000    5.00000000     
-5.00000000    5.00000000     
-5.00000000    5.00000000     
ITEM: ATOMS id type q x y z mux muy muz
      1   1    1.0000       3.082504       3.193593       0.332777      -0.468438       0.883100       0.026480
      2   2   -1.0000       1.403748       2.465120       3.313058       0.855433      -0.015000      -0.517697
      3   1    1.0000       3.519504      -1.209361       4.391214      -0.860057       0.509810      -0.019896
      4   2   -1.0000      -2.315708      -3.588558      -1.819057      -0.765026      -0.134901      -0.629711
      5   2   -1.0000      -3.557337      -2.827082      -2.318135       0.785239      -0.079890       0.614018
ITEM: TIMESTEP
2500
ITEM: NUMBER OF ATOMS
5
ITEM: BOX BOUNDS ff ff ff
-5.00000000    5.00000000     
-5.00000000    5.00000000     
-5.00000000    5.00000000     
ITEM: ATOMS id type q x y z mux muy muz
      1   1    1.0000       3.096227       3.220605       0.336385      -0.593755       0.803337      -0.045864
      2   2   -1.0000       1.420383       2.456519       3.308555       0.853997      -0.012839      -0.520119
      3   1    1.0000       3.551845      -1.195832       4.361952      -0.862019       0.506386      -0.022258
      4   2   -1.0000      -2.382254      -3.523910      -1.839954      -0.753088      -0.158132      -0.638634
      5   2   -1.0000      -3.553490      -2.776801      -2.321130       0.779087      -0.050669       0.624865
ITEM: TIMESTEP
2600
ITEM: NUMBER OF ATOMS
5
ITEM: BOX BOUNDS ff ff ff
-5.00000000    5.00000000     
-5.00000000    5.00000000     
-5.00000000    5.00000000     
ITEM: ATOMS id type q x y z mux muy muz
      1   1    1.0000       3.109477       3.247539       0.340173      -0.704564       0.700096      -0.115995
      2   2   -1.0000       1.437863       2.447670       3.303885       0.852867      -0.010527      -0.522022
      3   1    1.0000       3.583651      -1.182050       4.332580      -0.863864       0.503129      -0.024493
      4   2   -1.0000      -2.449008      -3.461145      -1.862164      -0.737951      -0.187655      -0.648239
      5   2   -1.0000      -3.549272      -2.724477      -2.322748       0.770828      -0.015436       0.636857
ITEM: TIMESTEP
2700
ITEM: NUMBER OF ATOMS
5
ITEM: BOX BOUNDS ff ff ff
-5.00000000    5.00000000     
-5.00000000    5.00000000     
-5.00000000    5.00000000     
ITEM: ATOMS id type q x y z mux muy muz
      1   1    1.0000       3.122195       3.274292       0.344134      -0.796915       0.576134      -0.181647
      2   2   -1.0000       1.456131       2.438605       3.299050       0.852059      -0.007911      -0.523385
      3   1    1.0000       3.614808      -1.168060       4.303218      -0.865601       0.500029      -0.026554
      4   2   -1.0000      -2.516394      -3.400624      -1.886149      -0.718762      -0.224432      -0.658036
      5   2   -1.0000      -3.544030      -2.670163      -2.322446       0.759818       0.026645       0.649590
ITEM: TIMESTEP
2800
ITEM: NUMBER OF ATOMS
5
ITEM: BOX BOUNDS ff ff ff
-5.00000000    5.00000000     
-5.00000000    5.00000000     
-5.00000000    5.00000000     
ITEM: ATOMS id type q x y z mux muy muz
      1   1    1.0000       3.134292       3.300698       0.348244      -0.867544       0.435268      -0.240643
      2   2   -1.0000       1.475080       2.429375       3.294066       0.851578      -0.004840      -0.524206
      3   1    1.0000       3.645126      -1.153947       4.274061      -0.867245       0.497071      -0.028394
      4   2   -1.0000      -2.585087      -3.342546      -1.912485      -0.694599      -0.269053      -0.667190
      5   2   -1.0000      -3.536699      -2.614365      -2.319501       0.745359       0.075958       0.662322
ITEM: TIMESTEP
2900
ITEM: NUMBER OF ATOMS
5
ITEM: BOX BOUNDS ff ff ff
-5.00000000    5.00000000     
-5.00000000    5.00000000     
-5.00000000    5.00000000     
ITEM: ATOMS id type q x y z mux muy muz
      1   1    1.0000       3.145644       3.326496       0.352454      -0.914159       0.282124      -0.291065
      2   2   -1.0000       1.494517       2.420070       3.288972       0.851413      -0.001164      -0.524495
      3   1    1.0000       3.674307      -1.139850       4.245417      -0.868813       0.494232      -0.029965
      4   2   -1.0000      -2.656093      -3.286658      -1.941832      -0.664760      -0.321174      -0.674493
      5   2   -1.0000      -3.525664      -2.558462      -2.313024       0.726961       0.131769       0.673918
ITEM: TIMESTEP
3000
ITEM: NUMBER OF ATOMS
5
ITEM: BOX BOUNDS ff ff ff
-5.00000000    5.00000000     
-5.00000000    5.00000000     
-5.00000000    5.00000000     
ITEM: ATOMS id type q x y z mux muy muz
      1   1    1.0000       3.156081       3.351300       0.356690      -0.935605       0.121656      -0.331425
      2   2   -1.0000       1.514132       2.410830       3.283845       0.851540       0.003258      -0.524280
      3   1    1.0000       3.701917      -1.125991       4.217741      -0.870326       0.491485      -0.031225
      4   2   -1.0000      -2.730734      -3.231742      -1.974771      -0.629412      -0.378679      -0.678559
      5   2   -1.0000      -3.508685      -2.505383      -2.302088       0.704962       0.191128       0.683008
ITEM: TIMESTEP
3100
ITEM: NUMBER OF ATOMS
5
ITEM: BOX BOUNDS ff ff ff
-5.00000000    5.00000000     
-5.00000000    5.00000000     
-5.00000000    5.00000000     
ITEM: ATOMS id type q x y z mux muy muz
      1   1    1.0000       3.165392       3.374588       0.360838      -0.931736      -0.041564      -0.360751
      2   2   -1.0000       1.533471       2.401858       3.278798       0.851922       0.008567      -0.523598
      3   1    1.0000       3.727380      -1.112681       4.191651      -0.871809       0.488790      -0.032140
      4   2   -1.0000      -2.799833      -3.185250      -2.006989      -0.590888      -0.436465      -0.678491
      5   2   -1.0000      -3.493699      -2.450012      -2.290536       0.681783       0.247115       0.688554
ITEM: TIMESTEP
3200
ITEM: NUMBER OF ATOMS
5
ITEM: BOX BOUNDS ff ff ff
-5.00000000    5.00000000     
-5.00000000    5.00000000     
-5.00000000    5.00000000     
ITEM: ATOMS id type q x y z mux muy muz
      1   1    1.0000       3.175041       3.400079       0.365546      -0.902821      -0.204114      -0.378485
      2   2   -1.0000       1.555640       2.391708       3.273022       0.852513       0.014912      -0.522493
      3   1    1.0000       3.754733      -1.097796       4.163014      -0.873293       0.486099      -0.032679
      4   2   -1.0000      -2.841539      -3.171403      -2.028808      -0.557202      -0.482803      -0.675594
      5   2   -1.0000      -3.511164      -2.351909      -2.291334       0.664330       0.285053       0.690949
ITEM: TIMESTEP
3300
ITEM: NUMBER OF ATOMS
5
ITEM: BOX BOUNDS ff ff ff
-5.00000000    5.00000000     
-5.00000000    5.00000000     
-5.00000000    5.00000000     
ITEM: ATOMS id type q x y z mux muy muz
      1   1    1.0000       3.183467       3.423692       0.370040      -0.848760      -0.363429      -0.384092
      2   2   -1.0000       1.577097       2.381996       3.267443       0.853255       0.022435      -0.521012
      3   1    1.0000       3.779564      -1.083726       4.136449      -0.874808       0.483357      -0.032816
      4   2   -1.0000      -2.869729      -3.165577      -2.043033      -0.539949      -0.503819      -0.674256
      5   2   -1.0000      -3.537688      -2.253687      -2.298045       0.660913       0.289158       0.692519
ITEM: TIMESTEP
3400
ITEM: NUMBER OF ATOMS
5
ITEM: BOX BOUNDS ff ff ff
-5.00000000    5.00000000     
-5.00000000    5.00000000     
-5.00000000    5.00000000     
ITEM: ATOMS id type q x y z mux muy muz
      1   1    1.0000       3.191913       3.448942       0.374966      -0.771225      -0.512872      -0.377061
      2   2   -1.0000       1.601033       2.371271       3.261239       0.854059       0.031086      -0.519247
      3   1    1.0000       3.805541      -1.068392       4.108041      -0.876351       0.480574      -0.032525
      4   2   -1.0000      -2.903609      -3.145922      -2.056683      -0.542310      -0.497292      -0.677201
      5   2   -1.0000      -3.562167      -2.161787      -2.306750       0.671968       0.257631       0.694323
ITEM: TIMESTEP
3500
ITEM: NUMBER OF ATOMS
5
ITEM: BOX BOUNDS ff ff ff
-5.00000000    5.00000000     
-5.00000000    5.00000000     
-5.00000000    5.00000000     
ITEM: ATOMS id type q x y z mux muy muz
      1   1    1.0000       3.200321       3.475796       0.380294      -0.674967      -0.645134      -0.358079
      2   2   -1.0000       1.627472       2.359520       3.254414       0.854824       0.040744      -0.517316
      3   1    1.0000       3.832557      -1.051812       4.077872      -0.877913       0.477763      -0.031805
      4   2   -1.0000      -2.941693      -3.113023      -2.068954      -0.559165      -0.469437      -0.683347
      5   2   -1.0000      -3.585946      -2.075855      -2.318204       0.691203       0.198731       0.694798
ITEM: TIMESTEP
3600
ITEM: NUMBER OF ATOMS
5
ITEM: BOX BOUNDS ff ff ff
-5.00000000    5.00000000     
-5.00000000    5.00000000     
-5.00000000    5.00000000     
ITEM: ATOMS id type q x y z mux muy muz
      1   1    1.0000       3.208474       3.503681       0.385887      -0.565111      -0.756723      -0.328663
      2   2   -1.0000       1.655894       2.346972       3.247116       0.855458       0.051420      -0.515313
      3   1    1.0000       3.859966      -1.034343       4.046630      -0.879514       0.474884      -0.030665
      4   2   -1.0000      -2.982652      -3.068474      -2.079697      -0.583174      -0.428564      -0.690102
      5   2   -1.0000      -3.608972      -1.996924      -2.332030       0.711411       0.123186       0.691896
ITEM: TIMESTEP
3700
ITEM: NUMBER OF ATOMS
5
ITEM: BOX BOUNDS ff ff ff
-5.00000000    5.00000000     
-5.00000000    5.00000000     
-5.00000000    5.00000000     
ITEM: ATOMS id type q x y z mux muy muz
      1   1    1.0000       3.216216       3.532145       0.391629      -0.445615      -0.846849      -0.290299
      2   2   -1.0000       1.685864       2.333815       3.239475       0.855875       0.063205      -0.513305
      3   1    1.0000       3.887264      -1.016277       4.014864      -0.881186       0.471873      -0.029113
      4   2   -1.0000      -3.026002      -3.013693      -2.089387      -0.608392      -0.382475      -0.695393
      5   2   -1.0000      -3.630632      -1.925681      -2.347333       0.727631       0.040835       0.684752
ITEM: TIMESTEP
3800
ITEM: NUMBER OF ATOMS
5
ITEM: BOX BOUNDS ff ff ff
-5.00000000    5.00000000     
-5.00000000    5.00000000     
-5.00000000    5.00000000     
ITEM: ATOMS id type q x y z mux muy muz
      1   1    1.0000       3.223432       3.560826       0.397418      -0.319406      -0.915614      -0.244194
      2   2   -1.0000       1.717011       2.320210       3.231602       0.855983       0.076179      -0.511361
      3   1    1.0000       3.914054      -0.997858       3.983019      -0.882954       0.468673      -0.027156
      4   2   -1.0000      -3.071700      -2.949902      -2.098789      -0.631008      -0.338039      -0.698254
      5   2   -1.0000      -3.650086      -1.862615      -2.363015       0.737630      -0.040089       0.674014
ITEM: TIMESTEP
3900
ITEM: NUMBER OF ATOMS
5
ITEM: BOX BOUNDS ff ff ff
-5.00000000    5.00000000     
-5.00000000    5.00000000     
-5.00000000    5.00000000     
ITEM: ATOMS id type q x y z mux muy muz