ITEM: TIMESTEP
0
ITEM: NUMBER OF ATOMS
5
ITEM: BOX BOUNDS ff ff ff
-5.00000000    5.00000000     
-5.00000000    5.00000000     
-5.00000000    5.00000000     
ITEM: ATOMS id type q x y z mux muy muz
      1   1    1.0000      -4.250577      -3.938618       3.374695       0.530650       0.847478      -0.013830
      2   2   -1.0000      -2.601792      -3.049906       0.048908      -0.752282      -0.080477       0.653908
      3   1    1.0000       2.687379      -4.379971       0.768211       0.382356      -0.369330       0.846994
      4   2   -1.0000      -3.808335      -4.635835      -4.472607      -0.464608      -0.736586      -0.491509
      5   2   -1.0000       3.341700      -3.820683      -4.548334       0.818437       0.332914      -0.468326
ITEM: TIMESTEP
100
ITEM: NUMBER OF ATOMS
5
ITEM: BOX BOUNDS ff ff ff
-5.00000000    5.00000000     
-5.00000000    5.00000000     
-5.00000000    5.00000000     
ITEM: ATOMS id type q x y z mux muy muz
      1   1    1.0000      -4.204084      -3.960739       3.371392       0.478179       0.857069       0.191773
      2   2   -1.0000      -2.600889      -2.998717       0.028832      -0.816699      -0.149032       0.557487
      3   1    1.0000       2.678059      -4.323564       0.781093       0.389053      -0.282528       0.876821
      4   2   -1.0000      -3.852493      -4.680451      -4.477425      -0.448686      -0.736029      -0.506894
      5   2   -1.0000       3.347781      -3.861543      -4.533020       0.825239       0.349216      -0.443879
ITEM: TIMESTEP
200
ITEM: NUMBER OF ATOMS
5
ITEM: BOX BOUNDS ff ff ff
-5.00000000    5.00000000     
-5.00000000    5.00000000     
-5.00000000    5.00000000     
ITEM: ATOMS id type q x y z mux muy muz
      1   1    1.0000      -4.157537      -3.982769       3.367537       0.412577       0.833139       0.368320
      2   2   -1.0000      -2.599944      -2.947513       0.009995      -0.877556      -0.225910       0.422918
      3   1    1.0000       2.668546      -4.267154       0.793410       0.392255      -0.192085       0.899577
      4   2   -1.0000      -3.896999      -4.725169      -4.482508      -0.430659      -0.736048      -0.522271
      5   2   -1.0000       3.354309      -3.902408      -4.517561       0.829659       0.366807      -0.420855
ITEM: TIMESTEP
300
ITEM: NUMBER OF ATOMS
5
ITEM: BOX BOUNDS ff ff ff
-5.00000000    5.00000000     
-5.00000000    5.00000000     
-5.00000000    5.00000000     
ITEM: ATOMS id type q x y z mux muy muz
      1   1    1.0000      -4.110937      -4.004689       3.363122       0.344086       0.788965       0.509057
      2   2   -1.0000      -2.598952      -2.896311      -0.007637      -0.919754      -0.305783       0.246066
      3   1    1.0000       2.658831      -4.210758       0.805160       0.391781      -0.102231       0.914361
      4   2   -1.0000      -3.941840      -4.769983      -4.487809      -0.411274      -0.736461      -0.537102
      5   2   -1.0000       3.361273      -3.943271      -4.501964       0.831630       0.384894      -0.400312
ITEM: TIMESTEP
400
ITEM: NUMBER OF ATOMS
5
ITEM: BOX BOUNDS ff ff ff
-5.00000000    5.00000000     
-5.00000000    5.00000000     
-5.00000000    5.00000000     
ITEM: ATOMS id type q x y z mux muy muz
      1   1    1.0000      -4.064282      -4.026483       3.358127       0.280812       0.737564       0.614120
      2   2   -1.0000      -2.597906      -2.845133      -0.024093      -0.924782      -0.379232       0.030991
      3   1    1.0000       2.648904      -4.154387       0.816345       0.388012      -0.017409       0.921490
      4   2   -1.0000      -3.987000      -4.814885      -4.493277      -0.391461      -0.737078      -0.550885
      5   2   -1.0000       3.368659      -3.984124      -4.486230       0.831333       0.402596      -0.383148
ITEM: TIMESTEP
500
ITEM: NUMBER OF ATOMS
5
ITEM: BOX BOUNDS ff ff ff
-5.00000000    5.00000000     
-5.00000000    5.00000000     
-5.00000000    5.00000000     
ITEM: ATOMS id type q x y z mux muy muz
      1   1    1.0000      -4.017568      -4.048137       3.352517       0.227310       0.688610       0.688583
      2   2   -1.0000      -2.596804      -2.794004      -0.039399      -0.876256      -0.434621      -0.208038
      3   1    1.0000       2.638753      -4.098045       0.826969       0.381756       0.059184       0.922366
      4   2   -1.0000      -4.032457      -4.859862      -4.498857      -0.372056      -0.737730      -0.563319
      5   2   -1.0000       3.376450      -4.024964      -4.470358       0.829156       0.419206      -0.369819
ITEM: TIMESTEP
600
ITEM: NUMBER OF ATOMS
5
ITEM: BOX BOUNDS ff ff ff
-5.00000000    5.00000000     
-5.00000000    5.00000000     
-5.00000000    5.00000000     
ITEM: ATOMS id type q x y z mux muy muz
      1   1    1.0000      -3.970792      -4.069642       3.346251       0.184836       0.647479       0.739328
      2   2   -1.0000      -2.595641      -2.742947      -0.053578      -0.765423      -0.461259      -0.448740
      3   1    1.0000       2.628366      -4.041735       0.837042       0.373919       0.126266       0.918826
      4   2   -1.0000      -4.078186      -4.904901      -4.504501      -0.353609      -0.738307      -0.574337
      5   2   -1.0000       3.384629      -4.065789      -4.454342       0.825557       0.434329      -0.360297
ITEM: TIMESTEP
700
ITEM: NUMBER OF ATOMS
5
ITEM: BOX BOUNDS ff ff ff
-5.00000000    5.00000000     
-5.00000000    5.00000000     
-5.00000000    5.00000000     
ITEM: ATOMS id type q x y z mux muy muz
      1   1    1.0000      -3.923957      -4.090991       3.339281       0.152605       0.616183       0.772678
      2   2   -1.0000      -2.594420      -2.691983      -0.066641      -0.593725      -0.452065      -0.665678
      3   1    1.0000       2.617736      -3.985453       0.846577       0.365254       0.184129       0.912516
      4   2   -1.0000      -4.124160      -4.949990      -4.510172      -0.336373      -0.738755      -0.584033
      5   2   -1.0000       3.393175      -4.106596      -4.438173       0.820938       0.447856      -0.354239
ITEM: TIMESTEP
800
ITEM: NUMBER OF ATOMS
5
ITEM: BOX BOUNDS ff ff ff
-5.00000000    5.00000000     
-5.00000000    5.00000000     
-5.00000000    5.00000000     
ITEM: ATOMS id type q x y z mux muy muz
      1   1    1.0000      -3.877068      -4.112183       3.331560       0.128978       0.594818       0.793446
      2   2   -1.0000      -2.593138      -2.641127      -0.078589      -0.372203      -0.404832      -0.835210
      3   1    1.0000       2.606861      -3.929201       0.855590       0.356294       0.233889       0.904627
      4   2   -1.0000      -4.170350      -4.995119      -4.515851      -0.320394      -0.739067      -0.592560
      5   2   -1.0000       3.402070      -4.147383      -4.421839       0.815602       0.459849      -0.351188
ITEM: TIMESTEP
900
ITEM: NUMBER OF ATOMS
5
ITEM: BOX BOUNDS ff ff ff
-5.00000000    5.00000000     
-5.00000000    5.00000000     
-5.00000000    5.00000000     
ITEM: ATOMS id type q x y z mux muy muz
      1   1    1.0000      -3.830138      -4.133219       3.323045       0.112170       0.582645       0.804949
      2   2   -1.0000      -2.591796      -2.590385      -0.089410      -0.119022      -0.322234      -0.939148
      3   1    1.0000       2.595745      -3.872977       0.864099       0.347396       0.276882       0.895909
      4   2   -1.0000      -4.216731      -4.959773      -4.521535      -0.305614      -0.739274      -0.600062
      5   2   -1.0000       3.411295      -4.188147      -4.405327       0.809746       0.470443      -0.350706
ITEM: TIMESTEP
1000
ITEM: NUMBER OF ATOMS
5
ITEM: BOX BOUNDS ff ff ff
-5.00000000    5.00000000     
-5.00000000    5.00000000     
-5.00000000    5.00000000     
ITEM: ATOMS id type q x y z mux muy muz
      1   1    1.0000      -3.783171      -4.154111       3.313698       0.100539       0.578661       0.809348
      2   2   -1.0000      -2.590389      -2.539736      -0.099088       0.143679      -0.211011      -0.966866
      3   1    1.0000       2.584396      -3.816766       0.872123       0.338802       0.314348       0.886791
      4   2   -1.0000      -4.263301      -4.914747      -4.527243      -0.291930      -0.739439      -0.606636
      5   2   -1.0000       3.420840      -4.228899      -4.388618       0.803490       0.479794      -0.352422
ITEM: TIMESTEP
1100
ITEM: NUMBER OF ATOMS
5
ITEM: BOX BOUNDS ff ff ff
-5.00000000    5.00000000     
-5.00000000    5.00000000     
-5.00000000    5.00000000     
ITEM: ATOMS id type q x y z mux muy muz
      1   1    1.0000      -3.736196      -4.174864       3.303492       0.092672       0.581809       0.808028
      2   2   -1.0000      -2.588909      -2.489165      -0.107590       0.392956      -0.080804      -0.916000
      3   1    1.0000       2.572830      -3.760575       0.879674       0.330699       0.347313       0.877503
      4   2   -1.0000      -4.310044      -4.869799      -4.533005      -0.279229      -0.739639      -0.612344
      5   2   -1.0000       3.430694      -4.269634      -4.371699       0.796901       0.488040      -0.356042
ITEM: TIMESTEP
1200
ITEM: NUMBER OF ATOMS
5
ITEM: BOX BOUNDS ff ff ff
-5.00000000    5.00000000     
-5.00000000    5.00000000     
-5.00000000    5.00000000     
ITEM: ATOMS id type q x y z mux muy muz
      1   1    1.0000      -3.689247      -4.195484       3.292418       0.087385       0.591037       0.801897
      2   2   -1.0000      -2.587343      -2.438652      -0.114885       0.607829       0.057218      -0.792004
      3   1    1.0000       2.561069      -3.704420       0.886764       0.323245       0.376568       0.868164
      4   2   -1.0000      -4.356950      -4.824932      -4.538862      -0.267398      -0.739955      -0.617224
      5   2   -1.0000       3.440847      -4.310344      -4.354562       0.790015       0.495297      -0.361328
ITEM: TIMESTEP
1300
ITEM: NUMBER OF ATOMS
5
ITEM: BOX BOUNDS ff ff ff
-5.00000000    5.00000000     
-5.00000000    5.00000000     
-5.00000000    5.00000000     
ITEM: ATOMS id type q x y z mux muy muz
      1   1    1.0000      -3.642366      -4.215984       3.280476       0.083698       0.605283       0.791598
      2   2   -1.0000      -2.585673      -2.388165      -0.120941       0.771361       0.191697      -0.606840
      3   1    1.0000       2.549138      -3.648317       0.893400       0.316577       0.402717       0.858836
      4   2   -1.0000      -4.404018      -4.780160      -4.544862      -0.256323      -0.740463      -0.621299
      5   2   -1.0000       3.451294      -4.351019      -4.337200       0.782853       0.501658      -0.368077
ITEM: TIMESTEP
1400
ITEM: NUMBER OF ATOMS
5
ITEM: BOX BOUNDS ff ff ff
-5.00000000    5.00000000     
-5.00000000    5.00000000     
-5.00000000    5.00000000     
ITEM: ATOMS id type q x y z mux muy muz
      1   1    1.0000      -3.595593      -4.236375       3.267684       0.080826       0.623467       0.777661
      2   2   -1.0000      -2.583876      -2.337667      -0.125732       0.871935       0.312238      -0.377143
      3   1    1.0000       2.537064      -3.592287       0.899581       0.310809       0.426214       0.849553
      4   2   -1.0000      -4.451253      -4.735505      -4.551051      -0.245885      -0.741226      -0.624600
      5   2   -1.0000       3.462033      -4.391652      -4.319610       0.775433       0.507203      -0.376097
ITEM: TIMESTEP
1500
ITEM: NUMBER OF ATOMS
5
ITEM: BOX BOUNDS ff ff ff
-5.00000000    5.00000000     
-5.00000000    5.00000000     
-5.00000000    5.00000000     
ITEM: ATOMS id type q x y z mux muy muz
      1   1    1.0000      -3.548971      -4.256674       3.254070       0.078165       0.644493       0.760605
      2   2   -1.0000      -2.581924      -2.287117      -0.129240       0.903749       0.410256      -0.122177
      3   1    1.0000       2.524872      -3.536352       0.905305       0.306018       0.447421       0.840338
      4   2   -1.0000      -4.498665      -4.690992      -4.557472      -0.235958      -0.742285      -0.627166
      5   2   -1.0000       3.473062      -4.432232      -4.301791       0.767773       0.512007      -0.385193
ITEM: TIMESTEP
1600
ITEM: NUMBER OF ATOMS
5
ITEM: BOX BOUNDS ff ff ff
-5.00000000    5.00000000     
-5.00000000    5.00000000     
-5.00000000    5.00000000     
ITEM: ATOMS id type q x y z mux muy muz
      1   1    1.0000      -3.502537      -4.276897       3.239675       0.075293       0.667282       0.740990
      2   2   -1.0000      -2.579786      -2.236476      -0.131462       0.866614       0.479487       0.138104
      3   1    1.0000       2.512584      -3.480536       0.910565       0.302234       0.466638       0.831206
      4   2   -1.0000      -4.546269      -4.646649      -4.564159      -0.226411      -0.743654      -0.629060
      5   2   -1.0000       3.484382      -4.472750      -4.283747       0.759898       0.516144      -0.395158
ITEM: TIMESTEP
1700
ITEM: NUMBER OF ATOMS
5
ITEM: BOX BOUNDS ff ff ff
-5.00000000    5.00000000     
-5.00000000    5.00000000     
-5.00000000    5.00000000     
ITEM: ATOMS id type q x y z mux muy muz
      1   1    1.0000      -3.456328      -4.297061       3.224546       0.071961       0.690827       0.719430
      2   2   -1.0000      -2.577432      -2.185706      -0.132405       0.765257       0.516153       0.384667
      3   1    1.0000       2.500219      -3.424861       0.915349       0.299428       0.484141       0.822162
      4   2   -1.0000      -4.594077      -4.602506      -4.571135      -0.217120      -0.745316      -0.630368
      5   2   -1.0000       3.495993      -4.513198      -4.265483       0.751843       0.519692      -0.405773
ITEM: TIMESTEP
1800
ITEM: NUMBER OF ATOMS
5
ITEM: BOX BOUNDS ff ff ff
-5.00000000    5.00000000     
-5.00000000    5.00000000     
-5.00000000    5.00000000     
ITEM: ATOMS id type q x y z mux muy muz
      1   1    1.0000      -3.410371      -4.317184       3.208737       0.068077       0.714255       0.696567
      2   2   -1.0000      -2.574834      -2.134779      -0.132091       0.608361       0.518874       0.600555
      3   1    1.0000       2.487790      -3.369350       0.919643       0.297512       0.500194       0.813199
      4   2   -1.0000      -4.642103      -4.558588      -4.578410      -0.207969      -0.747224      -0.631194
      5   2   -1.0000       3.507893      -4.553566      -4.247008       0.743648       0.522731      -0.416820
ITEM: TIMESTEP
1900
ITEM: NUMBER OF ATOMS
5
ITEM: BOX BOUNDS ff ff ff
-5.00000000    5.00000000     
-5.00000000    5.00000000     
-5.00000000    5.00000000     
ITEM: ATOMS id type q x y z mux muy muz
      1   1    1.0000      -3.364686      -4.337279       3.192301       0.063682       0.736875       0.673023
      2   2   -1.0000      -2.571968      -2.083675      -0.130551       0.407583       0.488415       0.771574
      3   1    1.0000       2.475304      -3.314023       0.923432       0.296343       0.515058       0.804298
      4   2   -1.0000      -4.690356      -4.514918      -4.585979      -0.198861      -0.749309      -0.631657
      5   2   -1.0000       3.520080      -4.593848      -4.228331       0.735359       0.525345      -0.428089
ITEM: TIMESTEP
2000
ITEM: NUMBER OF ATOMS
5
ITEM: BOX BOUNDS ff ff ff
-5.00000000    5.00000000     
-5.00000000    5.00000000     
-5.00000000    5.00000000     
ITEM: ATOMS id type q x y z mux muy muz
      1   1    1.0000      -3.319282      -4.357356       3.175289       0.058913       0.758209       0.649345
      2   2   -1.0000      -2.568815      -2.032386      -0.127829       0.176726       0.427390       0.886626
      3   1    1.0000       2.462762      -3.258896       0.926701       0.295738       0.528992       0.795428
      4   2   -1.0000      -4.738840      -4.471513      -4.593827      -0.189727      -0.751483      -0.631884
      5   2   -1.0000       3.532549      -4.634037      -4.209462       0.727023       0.527610      -0.439392
ITEM: TIMESTEP
2100
ITEM: NUMBER OF ATOMS
5
ITEM: BOX BOUNDS ff ff ff
-5.00000000    5.00000000     
-5.00000000    5.00000000     
-5.00000000    5.00000000     
ITEM: ATOMS id type q x y z mux muy muz
      1   1    1.0000      -3.274159      -4.377419       3.157745       0.053966       0.777988       0.625957
      2   2   -1.0000      -2.565363      -1.980919      -0.123972      -0.068866       0.340029       0.937890
      3   1    1.0000       2.450158      -3.203980       0.929433       0.295488       0.542245       0.786548
      4   2   -1.0000      -4.787553      -4.428382      -4.601923      -0.180529      -0.753654      -0.631993
      5   2   -1.0000       3.545293      -4.674127      -4.190411       0.718684       0.529598      -0.450577
ITEM: TIMESTEP
2200
ITEM: NUMBER OF ATOMS
5
ITEM: BOX BOUNDS ff ff ff
-5.00000000    5.00000000     
-5.00000000    5.00000000     
-5.00000000    5.00000000     
ITEM: ATOMS id type q x y z mux muy muz
      1   1    1.0000      -3.229307      -4.397464       3.139705       0.049050       0.796131       0.603133
      2   2   -1.0000      -2.561609      -1.929296      -0.119030      -0.312761       0.232034       0.921054
      3   1    1.0000       2.437480      -3.149280       0.931618       0.295374       0.555048       0.777609
      4   2   -1.0000      -4.836491      -4.385527      -4.610232      -0.171259      -0.755732      -0.632092
      5   2   -1.0000       3.558302      -4.714115      -4.171189       0.710383       0.531364      -0.461527
ITEM: TIMESTEP
2300
ITEM: NUMBER OF ATOMS
5
ITEM: BOX BOUNDS ff ff ff
-5.00000000    5.00000000     
-5.00000000    5.00000000     
-5.00000000    5.00000000     
ITEM: ATOMS id type q x y z mux muy muz
      1   1    1.0000      -3.184708      -4.417476       3.121193       0.044360       0.812705       0.580985
      2   2   -1.0000      -2.557553      -1.877552      -0.113053      -0.537922       0.110491       0.835722
      3   1    1.0000       2.424710      -3.094796       0.933245       0.295190       0.567604       0.768563
      4   2   -1.0000      -4.885640      -4.342942      -4.618709      -0.161941      -0.757633      -0.632271
      5   2   -1.0000       3.571566      -4.754000      -4.151803       0.702156       0.532950      -0.472167
ITEM: TIMESTEP
2400
ITEM: NUMBER OF ATOMS
5
ITEM: BOX BOUNDS ff ff ff
-5.00000000    5.00000000     
-5.00000000    5.00000000     
-5.00000000    5.00000000     
ITEM: ATOMS id type q x y z mux muy muz
      1   1    1.0000      -3.140337      -4.437431       3.102217       0.040045       0.827878       0.559477
      2   2   -1.0000      -2.553202      -1.825739      -0.106087      -0.727452      -0.016257       0.685965
      3   1    1.0000       2.411827      -3.040520       0.934309       0.294751       0.580078       0.759362
      4   2   -1.0000      -4.934984      -4.300613      -4.627308      -0.152627      -0.759293      -0.632597
      5   2   -1.0000       3.585071      -4.793782      -4.132259       0.694030       0.534378      -0.482456
ITEM: TIMESTEP
2500
ITEM: NUMBER OF ATOMS
5
ITEM: BOX BOUNDS ff ff ff
-5.00000000    5.00000000     
-5.00000000    5.00000000     
-5.00000000    5.00000000     
ITEM: ATOMS id type q x y z mux muy muz
      1   1    1.0000      -3.096165      -4.457294       3.082775       0.036193       0.841879       0.538452
      2   2   -1.0000      -2.548565      -1.773924      -0.098172      -0.865741      -0.138917       0.480827
      3   1    1.0000       2.398806      -2.986437       0.934811       0.293907       0.592598       0.749964
      4   2   -1.0000      -4.984505      -4.258521      -4.635983      -0.143384      -0.760663      -0.633114
      5   2   -1.0000       3.598805      -4.833463      -4.112559       0.686027       0.535651      -0.492387
ITEM: TIMESTEP
2600
ITEM: NUMBER OF ATOMS
5
ITEM: BOX BOUNDS ff ff ff
-5.00000000    5.00000000     
-5.00000000    5.00000000     
-5.00000000    5.00000000     
ITEM: ATOMS id type q x y z mux muy muz
      1   1    1.0000      -3.052166      -4.477017       3.062849       0.032823       0.854958       0.517657
      2   2   -1.0000      -2.543650      -1.722182      -0.089337      -0.940011      -0.247816       0.234448
      3   1    1.0000       2.385621      -2.932528       0.934755       0.292551       0.605247       0.740331
      4   2   -1.0000      -4.965941      -4.216639      -4.644690      -0.134293      -0.761717      -0.633839
      5   2   -1.0000       3.612751      -4.873048      -4.092705       0.678164       0.536758      -0.501981
ITEM: TIMESTEP
2700
ITEM: NUMBER OF ATOMS
5
ITEM: BOX BOUNDS ff ff ff
-5.00000000    5.00000000     
-5.00000000    5.00000000     
-5.00000000    5.00000000     
ITEM: ATOMS id type q x y z mux muy muz
      1   1    1.0000      -3.008261      -4.496569       3.042387       0.029892       0.867363       0.496778
      2   2   -1.0000      -2.538458      -1.670532      -0.079587      -0.942020      -0.333777      -0.034515
      3   1    1.0000       2.372234      -2.878705       0.934151       0.290619       0.618067       0.730434
      4   2   -1.0000      -4.916666      -4.174892      -4.653410      -0.125417      -0.762457      -0.634768
      5   2   -1.0000       3.626914      -4.912588      -4.072669       0.670438       0.537682      -0.511284
ITEM: TIMESTEP
2800
ITEM: NUMBER OF ATOMS
5
ITEM: BOX BOUNDS ff ff ff
-5.00000000    5.00000000     
-5.00000000    5.00000000     
-5.00000000    5.00000000     
ITEM: ATOMS id type q x y z mux muy muz
      1   1    1.0000      -2.964416      -4.515897       3.021342       0.027287       0.879306       0.475475
      2   2   -1.0000      -2.532988      -1.619040      -0.068922      -0.869513      -0.389096      -0.304224
      3   1    1.0000       2.358617      -2.824925       0.933012       0.288101       0.631063       0.720248
      4   2   -1.0000      -4.867636      -4.133235      -4.662120      -0.116806      -0.762902      -0.635875
      5   2   -1.0000       3.641289      -4.952103      -4.052440       0.662841       0.538397      -0.520357
ITEM: TIMESTEP
2900
ITEM: NUMBER OF ATOMS
5
ITEM: BOX BOUNDS ff ff ff
-5.00000000    5.00000000     
-5.00000000    5.00000000     
-5.00000000    5.00000000     
ITEM: ATOMS id type q x y z mux muy muz
      1   1    1.0000      -2.920632      -4.534933       2.999674       0.024836       0.890953       0.453416
      2   2   -1.0000      -2.527239      -1.567798      -0.057343      -0.727082      -0.408525      -0.551778
      3   1    1.0000       2.344759      -2.771171       0.931359       0.285039       0.644199       0.709761
      4   2   -1.0000      -4.818817      -4.091650      -4.670803      -0.108504      -0.763085      -0.637125
      5   2   -1.0000       3.655863      -4.991592      -4.032014       0.655358       0.538867      -0.529271
ITEM: TIMESTEP
3000
ITEM: NUMBER OF ATOMS
5
ITEM: BOX BOUNDS ff ff ff
-5.00000000    5.00000000     
-5.00000000    5.00000000     
-5.00000000    5.00000000     
ITEM: ATOMS id type q x y z mux muy muz
      1   1    1.0000      -2.876922      -4.553614       2.977343       0.022319       0.902411       0.430298
      2   2   -1.0000      -2.521203      -1.516892      -0.044844      -0.526083      -0.390009      -0.755731
      3   1    1.0000       2.330655      -2.717432       0.929213       0.281529       0.657417       0.698960
      4   2   -1.0000      -4.770171      -4.050117      -4.679453      -0.100544      -0.763051      -0.638470
      5   2   -1.0000       3.670625      -4.968932      -4.011386       0.647972       0.539053      -0.538103
ITEM: TIMESTEP
3100
ITEM: NUMBER OF ATOMS
5
ITEM: BOX BOUNDS ff ff ff
-5.00000000    5.00000000     
-5.00000000    5.00000000     
-5.00000000    5.00000000     
ITEM: ATOMS id type q x y z mux muy muz
      1   1    1.0000      -2.833314      -4.571880       2.954311       0.019489       0.913724       0.405867
      2   2   -1.0000      -2.514871      -1.466397      -0.031416      -0.283545      -0.334990      -0.898545
      3   1    1.0000       2.316311      -2.663702       0.926596       0.277729       0.670657       0.687813
      4   2   -1.0000      -4.721670      -4.008625      -4.688068      -0.092941      -0.762849      -0.639861
      5   2   -1.0000       3.685564      -4.929431      -3.990551       0.640647       0.538911      -0.546942
ITEM: TIMESTEP
3200
ITEM: NUMBER OF ATOMS
5
ITEM: BOX BOUNDS ff ff ff
-5.00000000    5.00000000     
-5.00000000    5.00000000     
-5.00000000    5.00000000     
ITEM: ATOMS id type q x y z mux muy muz
      1   1    1.0000      -2.789843      -4.589684       2.930547       0.016094       0.924870       0.379943
      2   2   -1.0000      -2.508231      -1.416372      -0.017044      -0.020313      -0.248245      -0.968484
      3   1    1.0000       2.301741      -2.609982       0.923531       0.273837       0.683851       0.676284
      4   2   -1.0000      -4.673292      -3.967171      -4.696661      -0.085695      -0.762536      -0.641245
      5   2   -1.0000       3.700674      -4.889888      -3.969501       0.633348       0.538400      -0.555874
ITEM: TIMESTEP
3300
ITEM: NUMBER OF ATOMS
5
ITEM: BOX BOUNDS ff ff ff
-5.00000000    5.00000000     
-5.00000000    5.00000000     
-5.00000000    5.00000000     
ITEM: ATOMS id type q x y z mux muy muz
      1   1    1.0000      -2.746553      -4.606994       2.906023       0.011904       0.935764       0.352427
      2   2   -1.0000      -2.501268      -1.366848      -0.001710       0.241254      -0.137282      -0.960703
      3   1    1.0000       2.286967      -2.556273       0.920037       0.270073       0.696925       0.664346
      4   2   -1.0000      -4.625018      -3.925751      -4.705250      -0.078790      -0.762171      -0.642563
      5   2   -1.0000       3.715949      -4.850292      -3.948228       0.626036       0.537485      -0.564968
ITEM: TIMESTEP
3400
ITEM: NUMBER OF ATOMS
5
ITEM: BOX BOUNDS ff ff ff
-5.00000000    5.00000000     
-5.00000000    5.00000000     
-5.00000000    5.00000000     
ITEM: ATOMS id type q x y z mux muy muz
      1   1    1.0000      -2.703491      -4.623794       2.880723       0.006728       0.946266       0.323318
      2   2   -1.0000      -2.493967      -1.317839       0.014605       0.479609      -0.011457      -0.877407
      3   1    1.0000       2.272018      -2.502583       0.916132       0.266664       0.709804       0.651973
      4   2   -1.0000      -4.576840      -3.884372      -4.713862      -0.072195      -0.761813      -0.643761
      5   2   -1.0000       3.731386      -4.810633      -3.926726       0.618676       0.536141      -0.574276
ITEM: TIMESTEP
3500
ITEM: NUMBER OF ATOMS
5
ITEM: BOX BOUNDS ff ff ff
-5.00000000    5.00000000     
-5.00000000    5.00000000     
-5.00000000    5.00000000     
ITEM: ATOMS id type q x y z mux muy muz
      1   1    1.0000      -2.660705      -4.640084       2.854636       0.000445       0.956198       0.292719
      2   2   -1.0000      -2.486317      -1.269331       0.031924       0.676033       0.119043      -0.727192
      3   1    1.0000       2.256926      -2.448927       0.911826       0.263820       0.722427       0.639139
      4   2   -1.0000      -4.528757      -3.843046      -4.722525      -0.065865      -0.761516      -0.644791
      5   2   -1.0000       3.746982      -4.770905      -3.904989       0.611237       0.534361      -0.583822
ITEM: TIMESTEP
3600
ITEM: NUMBER OF ATOMS
5
ITEM: BOX BOUNDS ff ff ff
-5.00000000    5.00000000     
-5.00000000    5.00000000     
-5.00000000    5.00000000     
ITEM: ATOMS id type q x y z mux muy muz
      1   1    1.0000      -2.618240      -4.655879       2.827761      -0.006984       0.965360       0.260829
      2   2   -1.0000      -2.478306      -1.221297       0.050270       0.816115       0.244188      -0.523763
      3   1    1.0000       2.241724      -2.395322       0.907127       0.261720       0.734748       0.625818
      4   2   -1.0000      -4.480780      -3.801792      -4.731273      -0.059743      -0.761324      -0.645613
      5   2   -1.0000       3.762735      -4.731108      -3.883012       0.603696       0.532152      -0.593604
ITEM: TIMESTEP
3700
ITEM: NUMBER OF ATOMS
5
ITEM: BOX BOUNDS ff ff ff
-5.00000000    5.00000000     
-5.00000000    5.00000000     
-5.00000000    5.00000000     
ITEM: ATOMS id type q x y z mux muy muz
      1   1    1.0000      -2.576135      -4.671204       2.800101      -0.015506       0.973552       0.227937
      2   2   -1.0000      -2.469928      -1.173693       0.069667       0.890610       0.354936      -0.284314
      3   1    1.0000       2.226445      -2.341790       0.902033       0.260481       0.746748       0.611978
      4   2   -1.0000      -4.432926      -3.760633      -4.740134      -0.053765      -0.761269      -0.646203
      5   2   -1.0000       3.778643      -4.691245      -3.860796       0.596038       0.529543      -0.603592
ITEM: TIMESTEP
3800
ITEM: NUMBER OF ATOMS
5
ITEM: BOX BOUNDS ff ff ff
-5.00000000    5.00000000     
-5.00000000    5.00000000     
-5.00000000    5.00000000     
ITEM: ATOMS id type q x y z mux muy muz
      1   1    1.0000      -2.534420      -4.686097       2.771668      -0.024971       0.980604       0.194400
      2   2   -1.0000      -2.461181      -1.126467       0.090139       0.895674       0.443841      -0.027812
      3   1    1.0000       2.211117      -2.288357       0.896540       0.260145       0.758433       0.597582
      4   2   -1.0000      -4.385220      -3.719595      -4.749135      -0.047866      -0.761365      -0.646554
      5   2   -1.0000       3.794706      -4.651325      -3.838340       0.588259       0.526582      -0.613729
ITEM: TIMESTEP
3900
ITEM: NUMBER OF ATOMS
5
ITEM: BOX BOUNDS ff ff ff
-5.00000000    5.00000000     
-5.00000000    5.00000000     
-5.00000000    5.00000000     
ITEM: ATOMS id type q x y z mux muy muz