ITEM: TIMESTEP
0
ITEM: NUMBER OF ATOMS
5
ITEM: BOX BOUNDS ff ff ff
-5.00000000    5.00000000     
-5.00000000    5.00000000     
-5.00000000    5.00000000     
ITEM: ATOMS id type q x y z mux muy muz
      1   1    1.0000      -1.905057      -0.520523      -0.945171       0.920634      -0.023563      -0.389715
      2   2   -1.0000       4.840874      -2.077398      -2.052294       0.787176      -0.367585       0.495212
      3   1    1.0000      -1.455056       0.645712      -2.477048       0.866348       0.127293      -0.482947
      4   2   -1.0000       4.153402      -2.343143       3.958606      -0.819715       0.558287       0.127994
      5   2   -1.0000      -3.965511       1.565981       4.070036       0.791234       0.522629      -0.317502
ITEM: TIMESTEP
100
ITEM: NUMBER OF ATOMS
5
ITEM: BOX BOUNDS ff ff ff
-5.00000000    5.00000000     
-5.00000000    5.00000000     
-5.00000000    5.00000000     
ITEM: ATOMS id type q x y z mux muy muz
      1   1    1.0000      -1.874230      -0.544884      -0.932996       0.922404      -0.025009      -0.385416
      2   2   -1.0000       4.838554      -2.066043      -2.099020       0.786482      -0.371917       0.493075
      3   1    1.0000      -1.507720       0.623144      -2.505391       0.851391       0.143860      -0.504418
      4   2   -1.0000       4.203662      -2.343023       4.003532      -0.818952       0.559190       0.128935
      5   2   -1.0000      -3.991614       1.601436       4.088004       0.603309       0.653090      -0.457702
ITEM: TIMESTEP
200
ITEM: NUMBER OF ATOMS
5
ITEM: BOX BOUNDS ff ff ff
-5.00000000    5.00000000     
-5.00000000    5.00000000     
-5.00000000    5.00000000     
ITEM: ATOMS id type q x y z mux muy muz
      1   1    1.0000      -1.844844      -0.570303      -0.918808       0.926422      -0.029737      -0.375310
      2   2   -1.0000       4.835628      -2.054374      -2.146262       0.785501      -0.376622       0.491063
      3   1    1.0000      -1.558473       0.601078      -2.535453       0.816578       0.185008      -0.546784
      4   2   -1.0000       4.254183      -2.342897       4.048791      -0.817955       0.560405       0.129987
      5   2   -1.0000      -4.017842       1.637125       4.105861       0.374697       0.737230      -0.562223
ITEM: TIMESTEP
300
ITEM: NUMBER OF ATOMS
5
ITEM: BOX BOUNDS ff ff ff
-5.00000000    5.00000000     
-5.00000000    5.00000000     
-5.00000000    5.00000000     
ITEM: ATOMS id type q x y z mux muy muz
      1   1    1.0000      -1.816732      -0.596720      -0.902686       0.932736      -0.038114      -0.358540
      2   2   -1.0000       4.832103      -2.042424      -2.193907       0.784288      -0.381585       0.489168
      3   1    1.0000      -1.607426       0.579567      -2.567118       0.755210       0.248951      -0.606368
      4   2   -1.0000       4.304858      -2.342768       4.094279      -0.816716       0.561934       0.131165
      5   2   -1.0000      -4.044150       1.672975       4.123560       0.127150       0.770754      -0.624317
ITEM: TIMESTEP
400
ITEM: NUMBER OF ATOMS
5
ITEM: BOX BOUNDS ff ff ff
-5.00000000    5.00000000     
-5.00000000    5.00000000     
-5.00000000    5.00000000     
ITEM: ATOMS id type q x y z mux muy muz
      1   1    1.0000      -1.789684      -0.623993      -0.884847       0.940960      -0.050018      -0.334801
      2   2   -1.0000       4.827989      -2.030222      -2.241864       0.782908      -0.386654       0.487394
      3   1    1.0000      -1.654752       0.558563      -2.600138       0.659989       0.330384      -0.674730
      4   2   -1.0000       4.355604      -2.342640       4.139914      -0.815238       0.563773       0.132463
      5   2   -1.0000      -4.070505       1.708921       4.141064      -0.117397       0.756459      -0.643419
ITEM: TIMESTEP
500
ITEM: NUMBER OF ATOMS
5
ITEM: BOX BOUNDS ff ff ff
-5.00000000    5.00000000     
-5.00000000    5.00000000     
-5.00000000    5.00000000     
ITEM: ATOMS id type q x y z mux muy muz
      1   1    1.0000      -1.763467      -0.651943      -0.865591       0.950348      -0.064952      -0.304336
      2   2   -1.0000       4.823299      -2.017791      -2.290072       0.781439      -0.391668       0.485746
      3   1    1.0000      -1.700662       0.537957      -2.634193       0.525951       0.420289      -0.739413
      4   2   -1.0000       4.406368      -2.342515       4.185641      -0.813529       0.565908       0.133860
      5   2   -1.0000      -4.096886       1.744921       4.158344      -0.341390       0.702602      -0.624343
ITEM: TIMESTEP
600
ITEM: NUMBER OF ATOMS
5
ITEM: BOX BOUNDS ff ff ff
-5.00000000    5.00000000     
-5.00000000    5.00000000     
-5.00000000    5.00000000     
ITEM: ATOMS id type q x y z mux muy muz
      1   1    1.0000      -1.737841      -0.680395      -0.845247       0.959979      -0.082273      -0.267715
      2   2   -1.0000       4.818047      -2.005147      -2.338496       0.779955      -0.396478       0.484226
      3   1    1.0000      -1.745395       0.517619      -2.668946       0.353200       0.507007      -0.786253
      4   2   -1.0000       4.457127      -2.342399       4.231436      -0.811598       0.568327       0.135327
      5   2   -1.0000      -4.123285       1.780952       4.175382      -0.534137       0.619819      -0.574911
ITEM: TIMESTEP
700
ITEM: NUMBER OF ATOMS
5
ITEM: BOX BOUNDS ff ff ff
-5.00000000    5.00000000     
-5.00000000    5.00000000     
-5.00000000    5.00000000     
ITEM: ATOMS id type q x y z mux muy muz
      1   1    1.0000      -1.712566      -0.709203      -0.824122       0.968947      -0.101422      -0.225510
      2   2   -1.0000       4.812249      -1.992308      -2.387118       0.778530      -0.400970       0.482819
      3   1    1.0000      -1.789199       0.497433      -2.704085       0.148096       0.578231      -0.802320
      4   2   -1.0000       4.507874      -2.342292       4.277289      -0.809447       0.571027       0.136835
      5   2   -1.0000      -4.149705       1.816999       4.192165      -0.691392       0.518252      -0.503380
ITEM: TIMESTEP
800
ITEM: NUMBER OF ATOMS
5
ITEM: BOX BOUNDS ff ff ff
-5.00000000    5.00000000     
-5.00000000    5.00000000     
-5.00000000    5.00000000     
ITEM: ATOMS id type q x y z mux muy muz
      1   1    1.0000      -1.687406      -0.738256      -0.802474       0.976428      -0.122057      -0.178016
      2   2   -1.0000       4.805920      -1.979286      -2.435920       0.777229      -0.405060       0.481499
      3   1    1.0000      -1.832321       0.477320      -2.739354      -0.077409       0.623083      -0.778315
      4   2   -1.0000       4.558604      -2.342200       4.323194      -0.807066       0.574021       0.138361
      5   2   -1.0000      -4.176145       1.853051       4.208683      -0.813254       0.406040      -0.416834
ITEM: TIMESTEP
900
ITEM: NUMBER OF ATOMS
5
ITEM: BOX BOUNDS ff ff ff
-5.00000000    5.00000000     
-5.00000000    5.00000000     
-5.00000000    5.00000000     
ITEM: ATOMS id type q x y z mux muy muz
      1   1    1.0000      -1.662138      -0.767477      -0.780493       0.981625      -0.144066      -0.125132
      2   2   -1.0000       4.799079      -1.966100      -2.484881       0.776120      -0.408686       0.480222
      3   1    1.0000      -1.874995       0.457238      -2.774563      -0.307631       0.633632      -0.709841
      4   2   -1.0000       4.609310      -2.342123       4.369144      -0.804433       0.577336       0.139893
      5   2   -1.0000      -4.202603       1.889091       4.224922      -0.901981       0.289104      -0.320702
ITEM: TIMESTEP
1000
ITEM: NUMBER OF ATOMS
5
ITEM: BOX BOUNDS ff ff ff
-5.00000000    5.00000000     
-5.00000000    5.00000000     
-5.00000000    5.00000000     
ITEM: ATOMS id type q x y z mux muy muz
      1   1    1.0000      -1.636560      -0.796816      -0.758307       0.983638      -0.167487      -0.066369
      2   2   -1.0000       4.791746      -1.952769      -2.533968       0.775274      -0.411797       0.478929
      3   1    1.0000      -1.917433       0.437185      -2.809586      -0.525378       0.605672      -0.597611
      4   2   -1.0000       4.659971      -2.342063       4.415122      -0.801515       0.581010       0.141427
      5   2   -1.0000      -4.229071       1.925093       4.240868      -0.960520       0.171616      -0.218971
ITEM: TIMESTEP
1100
ITEM: NUMBER OF ATOMS
5
ITEM: BOX BOUNDS ff ff ff
-5.00000000    5.00000000     
-5.00000000    5.00000000     
-5.00000000    5.00000000     
ITEM: ATOMS id type q x y z mux muy muz
      1   1    1.0000      -1.610494      -0.826241      -0.735988       0.981320      -0.192382      -0.001002
      2   2   -1.0000       4.783939      -1.939317      -2.583139       0.774772      -0.414341       0.477546
      3   1    1.0000      -1.959818       0.417186      -2.844351      -0.714017       0.538891      -0.446962
      4   2   -1.0000       4.710560      -2.342022       4.461104      -0.798269       0.585087       0.142967
      5   2   -1.0000      -4.255535       1.961025       4.256504      -0.991795       0.056599      -0.114629
ITEM: TIMESTEP
1200
ITEM: NUMBER OF ATOMS
5
ITEM: BOX BOUNDS ff ff ff
-5.00000000    5.00000000     
-5.00000000    5.00000000     
-5.00000000    5.00000000     
ITEM: ATOMS id type q x y z mux muy muz
      1   1    1.0000      -1.583794      -0.855729      -0.713565       0.973158      -0.218688       0.071686
      2   2   -1.0000       4.775677      -1.925766      -2.632349       0.774706      -0.416261       0.475981
      3   1    1.0000      -2.002298       0.397276      -2.878831      -0.859136       0.436609      -0.266943
      4   2   -1.0000       4.761044      -2.342001       4.507062      -0.794650       0.589613       0.144525
      5   2   -1.0000      -4.281976       1.996850       4.271811      -0.998512      -0.053596      -0.010060
ITEM: TIMESTEP
1300
ITEM: NUMBER OF ATOMS
5
ITEM: BOX BOUNDS ff ff ff
-5.00000000    5.00000000     
-5.00000000    5.00000000     
-5.00000000    5.00000000     
ITEM: ATOMS id type q x y z mux muy muz
      1   1    1.0000      -1.556356      -0.885261      -0.691038       0.957243      -0.246075       0.152096
      2   2   -1.0000       4.766975      -1.912138      -2.681549       0.775175      -0.417497       0.474130
      3   1    1.0000      -2.044982       0.377498      -2.913030      -0.949766       0.305211      -0.069212
      4   2   -1.0000       4.811392      -2.342000       4.552970      -0.790611       0.594628       0.146122
      5   2   -1.0000      -4.308376       2.032530       4.286776      -0.983238      -0.157010       0.092684
ITEM: TIMESTEP
1400
ITEM: NUMBER OF ATOMS
5
ITEM: BOX BOUNDS ff ff ff
-5.00000000    5.00000000     
-5.00000000    5.00000000     
-5.00000000    5.00000000     
ITEM: ATOMS id type q x y z mux muy muz
      1   1    1.0000      -1.528114      -0.914818      -0.668393       0.931354      -0.273842       0.239978
      2   2   -1.0000       4.757844      -1.898453      -2.730699       0.776287      -0.417985       0.471876
      3   1    1.0000      -2.087936       0.357888      -2.946969      -0.979151       0.153413       0.133144
      4   2   -1.0000       4.861574      -2.342019       4.598802      -0.786106       0.600165       0.147780
      5   2   -1.0000      -4.334716       2.068031       4.301388      -0.948545      -0.251966       0.191768
ITEM: TIMESTEP
1500
ITEM: NUMBER OF ATOMS
5
ITEM: BOX BOUNDS ff ff ff
-5.00000000    5.00000000     
-5.00000000    5.00000000     
-5.00000000    5.00000000     
ITEM: ATOMS id type q x y z mux muy muz
      1   1    1.0000      -1.499046      -0.944382      -0.645609       0.893207      -0.300873       0.334151
      2   2   -1.0000       4.748294      -1.884727      -2.779764       0.778141      -0.417665       0.469097
      3   1    1.0000      -2.131186       0.338473      -2.980683      -0.945065      -0.008605       0.326768
      4   2   -1.0000       4.911573      -2.342058       4.644545      -0.781094       0.606246       0.149527
      5   2   -1.0000      -4.360983       2.103325       4.315641      -0.897118      -0.337083       0.285576
ITEM: TIMESTEP
1600
ITEM: NUMBER OF ATOMS
5
ITEM: BOX BOUNDS ff ff ff
-5.00000000    5.00000000     
-5.00000000    5.00000000     
-5.00000000    5.00000000     
ITEM: ATOMS id type q x y z mux muy muz
      1   1    1.0000      -1.469168      -0.973937      -0.622662       0.840822      -0.325697       0.432365
      2   2   -1.0000       4.738329      -1.870973      -2.828724       0.780830      -0.416480       0.465670
      3   1    1.0000      -2.174722       0.319266      -3.014211      -0.849711      -0.170071       0.499066
      4   2   -1.0000       4.961378      -2.342117       4.690190      -0.775538       0.612879       0.151395
      5   2   -1.0000      -4.387164       2.138391       4.329535      -0.831766      -0.411347       0.372772
ITEM: TIMESTEP
1700
ITEM: NUMBER OF ATOMS
5
ITEM: BOX BOUNDS ff ff ff
-5.00000000    5.00000000     
-5.00000000    5.00000000     
-5.00000000    5.00000000     
ITEM: ATOMS id type q x y z mux muy muz
      1   1    1.0000      -1.438527      -1.003469      -0.599526       0.772968      -0.346638       0.531378
      2   2   -1.0000       4.727947      -1.857196      -2.877567       0.784428      -0.414382       0.461476
      3   1    1.0000      -2.218504       0.300272      -3.047595      -0.699264      -0.320424       0.639029
      4   2   -1.0000       4.989006      -2.342194       4.735740      -0.769406       0.620064       0.153410
      5   2   -1.0000      -4.413254       2.173217       4.343077      -0.755341      -0.474157       0.452367
ITEM: TIMESTEP
1800
ITEM: NUMBER OF ATOMS
5
ITEM: BOX BOUNDS ff ff ff
-5.00000000    5.00000000     
-5.00000000    5.00000000     
-5.00000000    5.00000000     
ITEM: ATOMS id type q x y z mux muy muz
      1   1    1.0000      -1.407198      -1.032963      -0.576177       0.689534      -0.362046       0.627268
      2   2   -1.0000       4.717147      -1.843400      -2.926291       0.788983      -0.411335       0.456410
      3   1    1.0000      -2.262464       0.281486      -3.080880      -0.503209      -0.449956       0.737780
      4   2   -1.0000       4.939477      -2.342290       4.781201      -0.762665       0.627796       0.155613
      5   2   -1.0000      -4.439249       2.207796       4.356277      -0.670600      -0.525336       0.523754
ITEM: TIMESTEP
1900
ITEM: NUMBER OF ATOMS
5
ITEM: BOX BOUNDS ff ff ff
-5.00000000    5.00000000     
-5.00000000    5.00000000     
-5.00000000    5.00000000     
ITEM: ATOMS id type q x y z mux muy muz
      1   1    1.0000      -1.375276      -1.062406      -0.552589       0.591728      -0.370548       0.715927
      2   2   -1.0000       4.705928      -1.829589      -2.974887       0.794510      -0.407313       0.450389
      3   1    1.0000      -2.306510       0.262907      -3.114105      -0.273642      -0.550263       0.788879
      4   2   -1.0000       4.889989      -2.342401       4.826567      -0.755270       0.636070       0.158059
      5   2   -1.0000      -4.465140       2.242118       4.369143      -0.580075      -0.565083       0.586681
ITEM: TIMESTEP
2000
ITEM: NUMBER OF ATOMS
5
ITEM: BOX BOUNDS ff ff ff
-5.00000000    5.00000000     
-5.00000000    5.00000000     
-5.00000000    5.00000000     
ITEM: ATOMS id type q x y z mux muy muz
      1   1    1.0000      -1.342854      -1.091793      -0.528719       0.482034      -0.371255       0.793608
      2   2   -1.0000       4.694287      -1.815760      -3.023367       0.800999      -0.402298       0.443346
      3   1    1.0000      -2.350555       0.244522      -3.147328      -0.024656      -0.614551       0.788492
      4   2   -1.0000       4.840517      -2.342529       4.871852      -0.747176       0.644880       0.160804
      5   2   -1.0000      -4.490929       2.276190       4.381691      -0.485988      -0.593876       0.641192
ITEM: TIMESTEP
2100
ITEM: NUMBER OF ATOMS
5
ITEM: BOX BOUNDS ff ff ff
-5.00000000    5.00000000     
-5.00000000    5.00000000     
-5.00000000    5.00000000     
ITEM: ATOMS id type q x y z mux muy muz
      1   1    1.0000      -1.310023      -1.121128      -0.504524       0.363919      -0.363883       0.857410
      2   2   -1.0000       4.682217      -1.801909      -3.071747       0.808417      -0.396280       0.435228
      3   1    1.0000      -2.394517       0.226317      -3.180607       0.228169      -0.637904       0.735539
      4   2   -1.0000       4.791039      -2.342670       4.917068      -0.738336       0.654216       0.163896
      5   2   -1.0000      -4.516617       2.310019       4.393938      -0.390227      -0.612382       0.687540
ITEM: TIMESTEP
2200
ITEM: NUMBER OF ATOMS
5
ITEM: BOX BOUNDS ff ff ff
-5.00000000    5.00000000     
-5.00000000    5.00000000     
-5.00000000    5.00000000     
ITEM: ATOMS id type q x y z mux muy muz
      1   1    1.0000      -1.276868      -1.150412      -0.479954       0.241385      -0.348760       0.905593
      2   2   -1.0000       4.669717      -1.788029      -3.120040       0.816703      -0.389253       0.426003
      3   1    1.0000      -2.438316       0.208280      -3.214002       0.468262      -0.617581       0.631921
      4   2   -1.0000       4.741535      -2.342824       4.962225      -0.728706       0.664058       0.167376
      5   2   -1.0000      -4.542206       2.343615       4.405900      -0.294363      -0.621377       0.726114
ITEM: TIMESTEP
2300
ITEM: NUMBER OF ATOMS
5
ITEM: BOX BOUNDS ff ff ff
-5.00000000    5.00000000     
-5.00000000    5.00000000     
-5.00000000    5.00000000     
ITEM: ATOMS id type q x y z mux muy muz
      1   1    1.0000      -1.243463      -1.179648      -0.454966       0.118464      -0.326730       0.937664
      2   2   -1.0000       4.656783      -1.774116      -3.168262       0.825771      -0.381221       0.415660
      3   1    1.0000      -2.481886       0.190397      -3.247564       0.678713      -0.553401       0.482801
      4   2   -1.0000       4.691993      -2.342990       4.992672      -0.718243       0.674382       0.171276
      5   2   -1.0000      -4.567696       2.376986       4.417592      -0.199697      -0.621691       0.757378
ITEM: TIMESTEP
2400
ITEM: NUMBER OF ATOMS
5
ITEM: BOX BOUNDS ff ff ff
-5.00000000    5.00000000     
-5.00000000    5.00000000     
-5.00000000    5.00000000     
ITEM: ATOMS id type q x y z mux muy muz
      1   1    1.0000      -1.209870      -1.208839      -0.429523      -0.001230      -0.298989       0.954256
      2   2   -1.0000       4.643417      -1.760163      -3.216424       0.835507      -0.372201       0.404221
      3   1    1.0000      -2.525169       0.172655      -3.281334       0.843234      -0.448158       0.296834
      4   2   -1.0000       4.642405      -2.343166       4.947610      -0.706909       0.685157       0.175611
      5   2   -1.0000      -4.593087       2.410141       4.429027      -0.107298      -0.614178       0.781839
ITEM: TIMESTEP
2500
ITEM: NUMBER OF ATOMS
5
ITEM: BOX BOUNDS ff ff ff
-5.00000000    5.00000000     
-5.00000000    5.00000000     
-5.00000000    5.00000000     
ITEM: ATOMS id type q x y z mux muy muz
      1   1    1.0000      -1.176136      -1.237985      -0.403604      -0.114806      -0.266903       0.956861
      2   2   -1.0000       4.629622      -1.746164      -3.264539       0.845771      -0.362221       0.391750
      3   1    1.0000      -2.568124       0.155041      -3.315334       0.947499      -0.307934       0.086156
      4   2   -1.0000       4.592766      -2.343351       4.902583      -0.694662       0.696352       0.180385
      5   2   -1.0000      -4.618377       2.443089       4.440217      -0.018030      -0.599694       0.800026
ITEM: TIMESTEP
2600
ITEM: NUMBER OF ATOMS
5
ITEM: BOX BOUNDS ff ff ff
-5.00000000    5.00000000     
-5.00000000    5.00000000     
-5.00000000    5.00000000     
ITEM: ATOMS id type q x y z mux muy muz
      1   1    1.0000      -1.142296      -1.267090      -0.377204      -0.220262      -0.231818       0.947494
      2   2   -1.0000       4.615406      -1.732115      -3.312619       0.856407      -0.351324       0.378338
      3   1    1.0000      -2.610723       0.137542      -3.349569       0.980727      -0.142129      -0.134068
      4   2   -1.0000       4.543074      -2.343544       4.857592      -0.681463       0.707931       0.185585
      5   2   -1.0000      -4.643566       2.475837       4.451173       0.067432      -0.579077       0.812479
ITEM: TIMESTEP
2700
ITEM: NUMBER OF ATOMS
5
ITEM: BOX BOUNDS ff ff ff
-5.00000000    5.00000000     
-5.00000000    5.00000000     
-5.00000000    5.00000000     
ITEM: ATOMS id type q x y z mux muy muz
      1   1    1.0000      -1.108369      -1.296153      -0.350334      -0.316468      -0.194933       0.928358
      2   2   -1.0000       4.600779      -1.718011      -3.360675       0.867256      -0.339562       0.364094
      3   1    1.0000      -2.652953       0.120144      -3.384025       0.937275       0.036939      -0.346628
      4   2   -1.0000       4.493329      -2.343744       4.812638      -0.667275       0.719854       0.191193
      5   2   -1.0000      -4.668655       2.508394       4.461902       0.148594      -0.553127       0.819738
ITEM: TIMESTEP
2800
ITEM: NUMBER OF ATOMS
5
ITEM: BOX BOUNDS ff ff ff
-5.00000000    5.00000000     
-5.00000000    5.00000000     
-5.00000000    5.00000000     
ITEM: ATOMS id type q x y z mux muy muz
      1   1    1.0000      -1.074362      -1.325178      -0.323018      -0.403035      -0.157214       0.901580
      2   2   -1.0000       4.585754      -1.703848      -3.408722       0.878167      -0.326995       0.349138
      3   1    1.0000      -2.694818       0.102836      -3.418675       0.817864       0.214922      -0.533767
      4   2   -1.0000       4.443527      -2.343951       4.767722      -0.652058       0.732079       0.197180
      5   2   -1.0000      -4.693647       2.540770       4.472412       0.225130      -0.522580       0.822330
ITEM: TIMESTEP
2900
ITEM: NUMBER OF ATOMS
5
ITEM: BOX BOUNDS ff ff ff
-5.00000000    5.00000000     
-5.00000000    5.00000000     
-5.00000000    5.00000000     
ITEM: ATOMS id type q x y z mux muy muz
      1   1    1.0000      -1.040271      -1.354167      -0.295291      -0.480115      -0.119372       0.869046
      2   2   -1.0000       4.570347      -1.689625      -3.456767       0.889000      -0.313680       0.333592
      3   1    1.0000      -2.736337       0.085611      -3.453481       0.630127       0.376737      -0.678976
      4   2   -1.0000       4.393670      -2.344162       4.722847      -0.635763       0.744572       0.203515
      5   2   -1.0000      -4.718544       2.572973       4.482706       0.296859      -0.488090       0.820757
ITEM: TIMESTEP
3000
ITEM: NUMBER OF ATOMS
5
ITEM: BOX BOUNDS ff ff ff
-5.00000000    5.00000000     
-5.00000000    5.00000000     
-5.00000000    5.00000000     
ITEM: ATOMS id type q x y z mux muy muz
      1   1    1.0000      -1.006080      -1.383124      -0.267188      -0.548192      -0.081880       0.832335
      2   2   -1.0000       4.554577      -1.675340      -3.504822       0.899640      -0.299666       0.317566
      3   1    1.0000      -2.777537       0.068464      -3.488401       0.388306       0.508091      -0.768806
      4   2   -1.0000       4.343757      -2.344378       4.678016      -0.618328       0.757298       0.210167
      5   2   -1.0000      -4.743350       2.605008       4.492786       0.363719      -0.450224       0.815480
ITEM: TIMESTEP
3100
ITEM: NUMBER OF ATOMS
5
ITEM: BOX BOUNDS ff ff ff
-5.00000000    5.00000000     
-5.00000000    5.00000000     
-5.00000000    5.00000000     
ITEM: ATOMS id type q x y z mux muy muz
      1   1    1.0000      -0.971765      -1.412055      -0.238748      -0.607901      -0.045016       0.792735
      2   2   -1.0000       4.538467      -1.660995      -3.552889       0.909990      -0.284994       0.301158
      3   1    1.0000      -2.818459       0.051399      -3.523394       0.112114       0.596973      -0.794389
      4   2   -1.0000       4.293789      -2.344598       4.633235      -0.599673       0.770232       0.217106
      5   2   -1.0000      -4.768066       2.636879       4.502653       0.425724      -0.409453       0.806912
ITEM: TIMESTEP
3200
ITEM: NUMBER OF ATOMS
5
ITEM: BOX BOUNDS ff ff ff
-5.00000000    5.00000000     
-5.00000000    5.00000000     
-5.00000000    5.00000000     
ITEM: ATOMS id type q x y z mux muy muz
      1   1    1.0000      -0.937296      -1.440963      -0.209998      -0.659901      -0.008916       0.751300
      2   2   -1.0000       4.522037      -1.646595      -3.600969       0.919978      -0.269689       0.284444
      3   1    1.0000      -2.859146       0.034421      -3.558429      -0.175065       0.634934      -0.752470
      4   2   -1.0000       4.243768      -2.344821       4.588510      -0.579701       0.783348       0.224307
      5   2   -1.0000      -4.792696       2.668588       4.512305       0.482935      -0.366169       0.795420
ITEM: TIMESTEP
3300
ITEM: NUMBER OF ATOMS
5
ITEM: BOX BOUNDS ff ff ff
-5.00000000    5.00000000     
-5.00000000    5.00000000     
-5.00000000    5.00000000     
ITEM: ATOMS id type q x y z mux muy muz
      1   1    1.0000      -0.902639      -1.469854      -0.180958      -0.704793       0.026383       0.708922
      2   2   -1.0000       4.505311      -1.632146      -3.649057       0.929549      -0.253763       0.267475
      3   1    1.0000      -2.899645       0.017545      -3.593482      -0.448371       0.617958      -0.645826
      4   2   -1.0000       4.193700      -2.345047       4.543851      -0.558296       0.796617       0.231750
      5   2   -1.0000      -4.817237       2.700132       4.521739       0.535422      -0.320702       0.781328
ITEM: TIMESTEP
3400
ITEM: NUMBER OF ATOMS
5
ITEM: BOX BOUNDS ff ff ff
-5.00000000    5.00000000     
-5.00000000    5.00000000     
-5.00000000    5.00000000     
ITEM: ATOMS id type q x y z mux muy muz
      1   1    1.0000      -0.867757      -1.498728      -0.151638      -0.743091       0.060897       0.666414
      2   2   -1.0000       4.488309      -1.617656      -3.697140       0.938661      -0.237218       0.250286
      3   1    1.0000      -2.940001       0.000785      -3.628545      -0.683775       0.546893      -0.483072
      4   2   -1.0000       4.143591      -2.345275       4.499268      -0.535328       0.810001       0.239419
      5   2   -1.0000      -4.841687       2.731503       4.530950       0.583247      -0.273338       0.764924
ITEM: TIMESTEP
3500
ITEM: NUMBER OF ATOMS
5
ITEM: BOX BOUNDS ff ff ff
-5.00000000    5.00000000     
-5.00000000    5.00000000     
-5.00000000    5.00000000     
ITEM: ATOMS id type q x y z mux muy muz
      1   1    1.0000      -0.832615      -1.527588      -0.122032      -0.775221       0.094673       0.624556
      2   2   -1.0000       4.471050      -1.603134      -3.745202       0.947281      -0.220051       0.232888
      3   1    1.0000      -2.980256      -0.015838      -3.663622      -0.860277       0.427413      -0.277924
      4   2   -1.0000       4.093452      -2.345504       4.454777      -0.510661       0.823447       0.247304
      5   2   -1.0000      -4.866040       2.762694       4.539935       0.626452      -0.224350       0.746475
ITEM: TIMESTEP
3600
ITEM: NUMBER OF ATOMS
5
ITEM: BOX BOUNDS ff ff ff
-5.00000000    5.00000000     
-5.00000000    5.00000000     
-5.00000000    5.00000000     
ITEM: ATOMS id type q x y z mux muy muz
      1   1    1.0000      -0.797181      -1.556433      -0.092127      -0.801541       0.127768       0.584130
      2   2   -1.0000       4.453548      -1.588592      -3.793223       0.955376      -0.202259       0.215285
      3   1    1.0000      -3.020441      -0.032306      -3.698729      -0.961787       0.269552      -0.048029
      4   2   -1.0000       4.043292      -2.345732       4.410390      -0.484156       0.836878       0.255398
      5   2   -1.0000      -4.890290       2.793692       4.548690       0.665055      -0.174013       0.726238
ITEM: TIMESTEP
3700
ITEM: NUMBER OF ATOMS
5
ITEM: BOX BOUNDS ff ff ff
-5.00000000    5.00000000     
-5.00000000    5.00000000     
-5.00000000    5.00000000     
ITEM: ATOMS id type q x y z mux muy muz
      1   1    1.0000      -0.761429      -1.585261      -0.061900      -0.822366       0.160237       0.545928
      2   2   -1.0000       4.435815      -1.574040      -3.841177       0.962915      -0.183845       0.197471
      3   1    1.0000      -3.060580      -0.048598      -3.733892      -0.978600       0.086887       0.186527
      4   2   -1.0000       3.993123      -2.345958       4.366122      -0.455680       0.850189       0.263694
      5   2   -1.0000      -4.914427       2.824486       4.557210       0.699062      -0.122622       0.704469
ITEM: TIMESTEP
3800
ITEM: NUMBER OF ATOMS
5
ITEM: BOX BOUNDS ff ff ff
-5.00000000    5.00000000     
-5.00000000    5.00000000     
-5.00000000    5.00000000     
ITEM: ATOMS id type q x y z mux muy muz
      1   1    1.0000      -0.725338      -1.614069      -0.031321      -0.837995       0.192135       0.510733
      2   2   -1.0000       4.417857      -1.559487      -3.889039       0.969861      -0.164831       0.179444
      3   1    1.0000      -3.100682      -0.064698      -3.769143      -0.908351      -0.104582       0.404921
      4   2   -1.0000       3.942956      -2.346180       4.321988      -0.425120       0.863243       0.272186
      5   2   -1.0000      -4.938441       2.855063       4.565496       0.728478      -0.070500       0.681432
ITEM: TIMESTEP
3900
ITEM: NUMBER OF ATOMS
5
ITEM: BOX BOUNDS ff ff ff
-5.00000000    5.00000000     
-5.00000000    5.00000000     
-5.00000000    5.00000000     
ITEM: ATOMS id type q x y z mux muy muz