ITEM: TIMESTEP
0
ITEM: NUMBER OF ATOMS
5
ITEM: BOX BOUNDS ff ff ff
-5.00000000    5.00000000     
-5.00000000    5.00000000     
-5.00000000    5.00000000     
ITEM: ATOMS id type q x y z mux muy muz
      1   1    1.0000       3.325456       2.508077      -3.561211      -0.341239      -0.872782       0.349009
      2   2   -1.0000       1.220487      -4.196805       1.945911       0.926354      -0.305429      -0.220413
      3   1    1.0000      -1.182312      -3.675103       3.620900       0.068031       0.718316       0.692383
      4   2   -1.0000       1.139848      -1.452890      -4.692775       0.452060       0.417903      -0.788034
      5   2   -1.0000       0.373737       4.232346       0.963634      -0.624610       0.305835       0.718559
ITEM: TIMESTEP
100
ITEM: NUMBER OF ATOMS
5
ITEM: BOX BOUNDS ff ff ff
-5.00000000    5.00000000     
-5.00000000    5.00000000     
-5.00000000    5.00000000     
ITEM: ATOMS id type q x y z mux muy muz
      1   1    1.0000       3.366422       2.525999      -3.547882      -0.386497      -0.882598       0.267658
      2   2   -1.0000       1.209387      -4.200170       1.915280       0.919659      -0.323962      -0.221984
      3   1    1.0000      -1.252311      -3.684584       3.659459       0.085576       0.772296       0.629473
      4   2   -1.0000       1.116438      -1.466677      -4.697535       0.547698       0.554973      -0.626124
      5   2   -1.0000       0.437281       4.241058       0.947137      -0.626129       0.301007       0.719276
ITEM: TIMESTEP
200
ITEM: NUMBER OF ATOMS
5
ITEM: BOX BOUNDS ff ff ff
-5.00000000    5.00000000     
-5.00000000    5.00000000     
-5.00000000    5.00000000     
ITEM: ATOMS id type q x y z mux muy muz
      1   1    1.0000       3.407262       2.543843      -3.534102      -0.434650      -0.882740       0.178461
      2   2   -1.0000       1.197624      -4.203066       1.885527       0.910384      -0.344165      -0.229679
      3   1    1.0000      -1.322286      -3.694680       3.697251       0.114362       0.820125       0.560640
      4   2   -1.0000       1.093072      -1.480277      -4.702513       0.615104       0.663672      -0.425659
      5   2   -1.0000       0.501543       4.249806       0.930296      -0.627888       0.295624       0.719975
ITEM: TIMESTEP
300
ITEM: NUMBER OF ATOMS
5
ITEM: BOX BOUNDS ff ff ff
-5.00000000    5.00000000     
-5.00000000    5.00000000     
-5.00000000    5.00000000     
ITEM: ATOMS id type q x y z mux muy muz
      1   1    1.0000       3.447999       2.561659      -3.519871      -0.484149      -0.871063       0.082757
      2   2   -1.0000       1.185146      -4.205497       1.856644       0.898370      -0.365619      -0.243423
      3   1    1.0000      -1.392148      -3.705378       3.734279       0.152254       0.860689       0.485833
      4   2   -1.0000       1.069725      -1.493736      -4.707701       0.648253       0.735195      -0.198133
      5   2   -1.0000       0.566494       4.258578       0.913107      -0.629805       0.289789       0.720672
ITEM: TIMESTEP
400
ITEM: NUMBER OF ATOMS
5
ITEM: BOX BOUNDS ff ff ff
-5.00000000    5.00000000     
-5.00000000    5.00000000     
-5.00000000    5.00000000     
ITEM: ATOMS id type q x y z mux muy muz
      1   1    1.0000       3.488655       2.579484      -3.505198      -0.533296      -0.845741      -0.017808
      2   2   -1.0000       1.171895      -4.207471       1.828630       0.883435      -0.387802      -0.262967
      3   1    1.0000      -1.461816      -3.716660       3.770542       0.197244       0.892697       0.405200
      4   2   -1.0000       1.046370      -1.507088      -4.713076       0.644024       0.763833       0.042343
      5   2   -1.0000       0.632113       4.267360       0.895562      -0.631789       0.283610       0.721394
ITEM: TIMESTEP
500
ITEM: NUMBER OF ATOMS
5
ITEM: BOX BOUNDS ff ff ff
-5.00000000    5.00000000     
-5.00000000    5.00000000     
-5.00000000    5.00000000     
ITEM: ATOMS id type q x y z mux muy muz
      1   1    1.0000       3.529250       2.597346      -3.490098      -0.580287      -0.805327      -0.121310
      2   2   -1.0000       1.157815      -4.209004       1.801481       0.865410      -0.410097      -0.287900
      3   1    1.0000      -1.531218      -3.728507       3.806034       0.247390       0.914828       0.319200
      4   2   -1.0000       1.022989      -1.520355      -4.718611       0.602305       0.747323       0.280601
      5   2   -1.0000       0.698379       4.276145       0.877653      -0.633744       0.277191       0.722172
ITEM: TIMESTEP
600
ITEM: NUMBER OF ATOMS
5
ITEM: BOX BOUNDS ff ff ff
-5.00000000    5.00000000     
-5.00000000    5.00000000     
-5.00000000    5.00000000     
ITEM: ATOMS id type q x y z mux muy muz
      1   1    1.0000       3.569803       2.615255      -3.474587      -0.623248      -0.748791      -0.225553
      2   2   -1.0000       1.142847      -4.210113       1.775196       0.844169      -0.431819      -0.317666
      3   1    1.0000      -1.600287      -3.740894       3.840752       0.300790       0.925877       0.228642
      4   2   -1.0000       0.999571      -1.533548      -4.724273       0.525794       0.686808       0.501832
      5   2   -1.0000       0.765281       4.284926       0.859370      -0.635580       0.270627       0.723048
ITEM: TIMESTEP
700
ITEM: NUMBER OF ATOMS
5
ITEM: BOX BOUNDS ff ff ff
-5.00000000    5.00000000     
-5.00000000    5.00000000     
-5.00000000    5.00000000     
ITEM: ATOMS id type q x y z mux muy muz
      1   1    1.0000       3.610327       2.633208      -3.458685      -0.660279      -0.675558      -0.328104
      2   2   -1.0000       1.126934      -4.210824       1.749770       0.819669      -0.452244      -0.351594
      3   1    1.0000      -1.668964      -3.753795       3.874696       0.355589       0.924890       0.134669
      4   2   -1.0000       0.976112      -1.546663      -4.730027       0.419578       0.586509       0.692792
      5   2   -1.0000       0.832808       4.293699       0.840705      -0.637214       0.263986       0.724065
ITEM: TIMESTEP
800
ITEM: NUMBER OF ATOMS
5
ITEM: BOX BOUNDS ff ff ff
-5.00000000    5.00000000     
-5.00000000    5.00000000     
-5.00000000    5.00000000     
ITEM: ATOMS id type q x y z mux muy muz
      1   1    1.0000       3.650830       2.651188      -3.442406      -0.689494      -0.585533      -0.426320
      2   2   -1.0000       1.110020      -4.211166       1.725196       0.791972      -0.470643      -0.388942
      3   1    1.0000      -1.737200      -3.767178       3.907867       0.410011       0.911259       0.038697
      4   2   -1.0000       0.952614      -1.559686      -4.735845       0.290584       0.453195       0.842719
      5   2   -1.0000       0.900952       4.302468       0.821647      -0.638575       0.257308       0.725269
ITEM: TIMESTEP
900
ITEM: NUMBER OF ATOMS
5
ITEM: BOX BOUNDS ff ff ff
-5.00000000    5.00000000     
-5.00000000    5.00000000     
-5.00000000    5.00000000     
ITEM: ATOMS id type q x y z mux muy muz
      1   1    1.0000       3.691313       2.669170      -3.425759      -0.709061      -0.479114      -0.517380
      2   2   -1.0000       1.092053      -4.211176       1.701465       0.761252      -0.486321      -0.428936
      3   1    1.0000      -1.804947      -3.781007       3.940268       0.462409       0.884790      -0.057665
      4   2   -1.0000       0.929086      -1.572597      -4.741702       0.146942       0.295517       0.943969
      5   2   -1.0000       0.969710       4.311236       0.802187      -0.639608       0.250598       0.726706
ITEM: TIMESTEP
1000
ITEM: NUMBER OF ATOMS
5
ITEM: BOX BOUNDS ff ff ff
-5.00000000    5.00000000     
-5.00000000    5.00000000     
-5.00000000    5.00000000     
ITEM: ATOMS id type q x y z mux muy muz
      1   1    1.0000       3.731773       2.687118      -3.408745      -0.717236      -0.357208      -0.598310
      2   2   -1.0000       1.072988      -4.210892       1.678566       0.727800      -0.498639      -0.470814
      3   1    1.0000      -1.872165      -3.795244       3.971907       0.511308       0.845721      -0.152711
      4   2   -1.0000       0.905542      -1.585369      -4.747585      -0.002664       0.123269       0.992370
      5   2   -1.0000       1.039078       4.320013       0.782316      -0.640274       0.243825       0.728422
ITEM: TIMESTEP
1100
ITEM: NUMBER OF ATOMS
5
ITEM: BOX BOUNDS ff ff ff
-5.00000000    5.00000000     
-5.00000000    5.00000000     
-5.00000000    5.00000000     
ITEM: ATOMS id type q x y z mux muy muz
      1   1    1.0000       3.772201       2.704997      -3.391358      -0.712381      -0.221249      -0.666004
      2   2   -1.0000       1.052785      -4.210356       1.656489       0.692005      -0.507032      -0.513855
      3   1    1.0000      -1.938818      -3.809850       4.002793       0.555450       0.794722      -0.244728
      4   2   -1.0000       0.881996      -1.597977      -4.753489      -0.149644      -0.053360       0.987299
      5   2   -1.0000       1.109052       4.328813       0.762024      -0.640548       0.236919       0.730457
ITEM: TIMESTEP
1200
ITEM: NUMBER OF ATOMS
5
ITEM: BOX BOUNDS ff ff ff
-5.00000000    5.00000000     
-5.00000000    5.00000000     
-5.00000000    5.00000000     
ITEM: ATOMS id type q x y z mux muy muz
      1   1    1.0000       3.812585       2.722769      -3.373581      -0.692985      -0.073243      -0.717222
      2   2   -1.0000       1.031412      -4.209614       1.635222       0.654340      -0.511023      -0.557400
      3   1    1.0000      -2.004871      -3.824783       4.032936       0.593823       0.732870      -0.332076
      4   2   -1.0000       0.858462      -1.610397      -4.759419      -0.286092      -0.224529       0.931525
      5   2   -1.0000       1.179627       4.337652       0.741301      -0.640424       0.229782       0.732842
ITEM: TIMESTEP
1300
ITEM: NUMBER OF ATOMS
5
ITEM: BOX BOUNDS ff ff ff
-5.00000000    5.00000000     
-5.00000000    5.00000000     
-5.00000000    5.00000000     
ITEM: ATOMS id type q x y z mux muy muz
      1   1    1.0000       3.852908       2.740401      -3.355393      -0.657673       0.084143      -0.748589
      2   2   -1.0000       1.008848      -4.208711       1.614757       0.615347      -0.510223      -0.600850
      3   1    1.0000      -2.070292      -3.839998       4.062346       0.625691       0.661612      -0.413255
      4   2   -1.0000       0.834954      -1.622613      -4.765389      -0.405302      -0.381409       0.830817
      5   2   -1.0000       1.250798       4.346547       0.720138      -0.639907       0.222286       0.735600
ITEM: TIMESTEP
1400
ITEM: NUMBER OF ATOMS
5
ITEM: BOX BOUNDS ff ff ff
-5.00000000    5.00000000     
-5.00000000    5.00000000     
-5.00000000    5.00000000     
ITEM: ATOMS id type q x y z mux muy muz
      1   1    1.0000       3.893149       2.757867      -3.336763      -0.605253       0.247418      -0.756606
      2   2   -1.0000       0.985080      -4.207690       1.595083       0.575625      -0.504342      -0.643658
      3   1    1.0000      -2.135048      -3.855453       4.091033       0.650609       0.582725      -0.486969
      4   2   -1.0000       0.811479      -1.634616      -4.771420      -0.502184      -0.516764       0.693373
      5   2   -1.0000       1.322557       4.355518       0.698527      -0.639018       0.214290       0.738739
ITEM: TIMESTEP
1500
ITEM: NUMBER OF ATOMS
5
ITEM: BOX BOUNDS ff ff ff
-5.00000000    5.00000000     
-5.00000000    5.00000000     
-5.00000000    5.00000000     
ITEM: ATOMS id type q x y z mux muy muz
      1   1    1.0000       3.933283       2.775146      -3.317661      -0.534809       0.412028      -0.737707
      2   2   -1.0000       0.960107      -4.206595       1.576193       0.535821      -0.493198      -0.685311
      3   1    1.0000      -2.199109      -3.871105       4.119006       0.668446       0.498269      -0.552185
      4   2   -1.0000       0.788042      -1.646406      -4.777536      -0.573549      -0.625393       0.529079
      5   2   -1.0000       1.394893       4.364585       0.676457      -0.637794       0.205648       0.742245
ITEM: TIMESTEP
1600
ITEM: NUMBER OF ATOMS
5
ITEM: BOX BOUNDS ff ff ff
-5.00000000    5.00000000     
-5.00000000    5.00000000     
-5.00000000    5.00000000     
ITEM: ATOMS id type q x y z mux muy muz
      1   1    1.0000       3.973280       2.792227      -3.298052      -0.445899       0.572033      -0.688442
      2   2   -1.0000       0.933936      -4.205464       1.558081       0.496628      -0.476743      -0.725312
      3   1    1.0000      -2.262445      -3.886910       4.146275       0.679393       0.410526      -0.608189
      4   2   -1.0000       0.764646      -1.657992      -4.783762      -0.618245      -0.704416       0.348671
      5   2   -1.0000       1.467798       4.373766       0.653917      -0.636286       0.196227       0.746080
ITEM: TIMESTEP
1700
ITEM: NUMBER OF ATOMS
5
ITEM: BOX BOUNDS ff ff ff
-5.00000000    5.00000000     
-5.00000000    5.00000000     
-5.00000000    5.00000000     
ITEM: ATOMS id type q x y z mux muy muz
      1   1    1.0000       4.013105       2.809109      -3.277905      -0.338892       0.719776      -0.605867
      2   2   -1.0000       0.906587      -4.204335       1.540742       0.458775      -0.455096      -0.763160
      3   1    1.0000      -2.325024      -3.902830       4.172846       0.683974       0.321914      -0.654638
      4   2   -1.0000       0.741286      -1.669393      -4.790121      -0.637131      -0.753361       0.162823
      5   2   -1.0000       1.541262       4.383074       0.630897      -0.634565       0.185928       0.750172
ITEM: TIMESTEP
1800
ITEM: NUMBER OF ATOMS
5
ITEM: BOX BOUNDS ff ff ff
-5.00000000    5.00000000     
-5.00000000    5.00000000     
-5.00000000    5.00000000     
ITEM: ATOMS id type q x y z mux muy muz
      1   1    1.0000       4.052715       2.825800      -3.257189      -0.215468       0.845697      -0.488231
      2   2   -1.0000       0.878085      -4.203237       1.524171       0.423015      -0.428577      -0.798361
      3   1    1.0000      -2.386819      -3.918826       4.198724       0.683022       0.234869      -0.691605
      4   2   -1.0000       0.717958      -1.680632      -4.796630      -0.632864      -0.774036      -0.018744
      5   2   -1.0000       1.615278       4.392521       0.607383      -0.632721       0.174710       0.754414
ITEM: TIMESTEP
1900
ITEM: NUMBER OF ATOMS
5
ITEM: BOX BOUNDS ff ff ff
-5.00000000    5.00000000     
-5.00000000    5.00000000     
-5.00000000    5.00000000     
ITEM: ATOMS id type q x y z mux muy muz
      1   1    1.0000       4.092056       2.842315      -3.235881      -0.079229       0.938531      -0.335980
      2   2   -1.0000       0.848465      -4.202196       1.508363       0.390084      -0.397740      -0.830444
      3   1    1.0000      -2.447803      -3.934865       4.223915       0.677631       0.151691      -0.719587
      4   2   -1.0000       0.694657      -1.691736      -4.803302      -0.609497      -0.770161      -0.188059
      5   2   -1.0000       1.689840       4.402108       0.583364      -0.630863       0.162610       0.758663
ITEM: TIMESTEP
2000
ITEM: NUMBER OF ATOMS
5
ITEM: BOX BOUNDS ff ff ff
-5.00000000    5.00000000     
-5.00000000    5.00000000     
-5.00000000    5.00000000     
ITEM: ATOMS id type q x y z mux muy muz
      1   1    1.0000       4.131068       2.858678      -3.213961       0.063763       0.986175      -0.152946
      2   2   -1.0000       0.817768      -4.201233       1.493314       0.360652      -0.363370      -0.859007
      3   1    1.0000      -2.507949      -3.950916       4.248422       0.669067       0.074365      -0.739472
      4   2   -1.0000       0.671379      -1.702734      -4.810141      -0.571920      -0.746771      -0.339471
      5   2   -1.0000       1.764950       4.411830       0.558825      -0.629119       0.149760       0.762746
ITEM: TIMESTEP
2100
ITEM: NUMBER OF ATOMS
5
ITEM: BOX BOUNDS ff ff ff
-5.00000000    5.00000000     
-5.00000000    5.00000000     
-5.00000000    5.00000000     
ITEM: ATOMS id type q x y z mux muy muz
      1   1    1.0000       4.169680       2.874921      -3.191418       0.204771       0.977394       0.052630
      2   2   -1.0000       0.786039      -4.200363       1.479019       0.335250      -0.326438      -0.883768
      3   1    1.0000      -2.567238      -3.966953       4.272249       0.658639       0.004399      -0.752446
      4   2   -1.0000       0.648123      -1.713651      -4.817145      -0.525211      -0.709479      -0.469887
      5   2   -1.0000       1.840611       4.421672       0.533754      -0.627623       0.136390       0.766477
ITEM: TIMESTEP
2200
ITEM: NUMBER OF ATOMS
5
ITEM: BOX BOUNDS ff ff ff
-5.00000000    5.00000000     
-5.00000000    5.00000000     
-5.00000000    5.00000000     
ITEM: ATOMS id type q x y z mux muy muz
      1   1    1.0000       4.207816       2.891080      -3.168246       0.332820       0.904179       0.267753
      2   2   -1.0000       0.753325      -4.199597       1.465471       0.314209      -0.288008      -0.904612
      3   1    1.0000      -2.625650      -3.982952       4.295397       0.647561      -0.057283      -0.759857
      4   2   -1.0000       0.624892      -1.724510      -4.824304      -0.474027      -0.663714      -0.578603
      5   2   -1.0000       1.916833       4.431605       0.508141      -0.626509       0.122816       0.769677
ITEM: TIMESTEP
2300
ITEM: NUMBER OF ATOMS
5
ITEM: BOX BOUNDS ff ff ff
-5.00000000    5.00000000     
-5.00000000    5.00000000     
-5.00000000    5.00000000     
ITEM: ATOMS id type q x y z mux muy muz
      1   1    1.0000       4.245395       2.907201      -3.144447       0.435868       0.764202       0.475410
      2   2   -1.0000       0.719673      -4.198941       1.452665       0.297632      -0.249125      -0.921603
      3   1    1.0000      -2.683171      -3.998897       4.317869       0.636839      -0.110356      -0.763058
      4   2   -1.0000       0.601694      -1.735325      -4.831605      -0.422159      -0.614133      -0.666800
      5   2   -1.0000       1.993626       4.441587       0.481977      -0.625895       0.109411       0.772195
ITEM: TIMESTEP
2400
ITEM: NUMBER OF ATOMS
5
ITEM: BOX BOUNDS ff ff ff
-5.00000000    5.00000000     
-5.00000000    5.00000000     
-5.00000000    5.00000000     
ITEM: ATOMS id type q x y z mux muy muz
      1   1    1.0000       4.282338       2.923333      -3.120031       0.502561       0.562566       0.656469
      2   2   -1.0000       0.685129      -4.198399       1.440593       0.285396      -0.210703      -0.934962
      3   1    1.0000      -2.739792      -4.014770       4.339669       0.627207      -0.155011      -0.763272
      4   2   -1.0000       0.578543      -1.746104      -4.839030      -0.372338      -0.564286      -0.736849
      5   2   -1.0000       2.070998       4.451565       0.455258      -0.625868       0.096573       0.773927
ITEM: TIMESTEP
2500
ITEM: NUMBER OF ATOMS
5
ITEM: BOX BOUNDS ff ff ff
-5.00000000    5.00000000     
-5.00000000    5.00000000     
-5.00000000    5.00000000     
ITEM: ATOMS id type q x y z mux muy muz
      1   1    1.0000       4.318575       2.939531      -3.095010       0.524132       0.312244       0.792332
      2   2   -1.0000       0.649737      -4.197972       1.429246       0.277204      -0.173460      -0.945024
      3   1    1.0000      -2.795506      -4.030562       4.360799       0.619120      -0.191811      -0.761511
      4   2   -1.0000       0.555456      -1.756848      -4.846563      -0.326275      -0.516581      -0.791637
      5   2   -1.0000       2.148955       4.461477       0.427987      -0.626475       0.084691       0.774827
ITEM: TIMESTEP
2600
ITEM: NUMBER OF ATOMS
5
ITEM: BOX BOUNDS ff ff ff
-5.00000000    5.00000000     
-5.00000000    5.00000000     
-5.00000000    5.00000000     
ITEM: ATOMS id type q x y z mux muy muz
      1   1    1.0000       4.354051       2.955850      -3.069404       0.495960       0.033047       0.867716
      2   2   -1.0000       0.613535      -4.197659       1.418616       0.272648      -0.137898      -0.952180
      3   1    1.0000      -2.850313      -4.046264       4.381263       0.612798      -0.221530      -0.758553
      4   2   -1.0000       0.532452      -1.767551      -4.854187      -0.284853      -0.472448      -0.834058
      5   2   -1.0000       2.227491       4.471251       0.400171      -0.627715       0.074122       0.774907
ITEM: TIMESTEP
2700
ITEM: NUMBER OF ATOMS
5
ITEM: BOX BOUNDS ff ff ff
-5.00000000    5.00000000     
-5.00000000    5.00000000     
-5.00000000    5.00000000     
ITEM: ATOMS id type q x y z mux muy muz
      1   1    1.0000       4.388733       2.972344      -3.043234       0.418484      -0.250622       0.872960
      2   2   -1.0000       0.576557      -4.197460       1.408693       0.271272      -0.104327      -0.956832
      3   1    1.0000      -2.904218      -4.061870       4.401068       0.608285      -0.245018      -0.754954
      4   2   -1.0000       0.509554      -1.778202      -4.861890      -0.248371      -0.432591      -0.866705
      5   2   -1.0000       2.306590       4.480813       0.371821      -0.629532       0.065166       0.774237
ITEM: TIMESTEP
2800
ITEM: NUMBER OF ATOMS
5
ITEM: BOX BOUNDS ff ff ff
-5.00000000    5.00000000     
-5.00000000    5.00000000     
-5.00000000    5.00000000     
ITEM: ATOMS id type q x y z mux muy muz
      1   1    1.0000       4.422612       2.989064      -3.016521       0.297325      -0.512693       0.805446
      2   2   -1.0000       0.538831      -4.197371       1.399469       0.272622      -0.072900      -0.959355
      3   1    1.0000      -2.957227      -4.077377       4.420218       0.605512      -0.263103      -0.751087
      4   2   -1.0000       0.486779      -1.788785      -4.869660      -0.216762      -0.397236      -0.891750
      5   2   -1.0000       2.386221       4.490095       0.342953      -0.631816       0.058054       0.772941
ITEM: TIMESTEP
2900
ITEM: NUMBER OF ATOMS
5
ITEM: BOX BOUNDS ff ff ff
-5.00000000    5.00000000     
-5.00000000    5.00000000     
-5.00000000    5.00000000     
ITEM: ATOMS id type q x y z mux muy muz
      1   1    1.0000       4.455706       3.006052      -2.989285       0.142700      -0.728503       0.670015
      2   2   -1.0000       0.500379      -4.197392       1.390933       0.276275      -0.043665      -0.960086
      3   1    1.0000      -3.009352      -4.092783       4.438720       0.604341      -0.276542      -0.747193
      4   2   -1.0000       0.464144      -1.799284      -4.877493      -0.189754      -0.366331      -0.910931
      5   2   -1.0000       2.466338       4.499033       0.313583      -0.634405       0.052930       0.771186
ITEM: TIMESTEP
3000
ITEM: NUMBER OF ATOMS
5
ITEM: BOX BOUNDS ff ff ff
-5.00000000    5.00000000     
-5.00000000    5.00000000     
-5.00000000    5.00000000     
ITEM: ATOMS id type q x y z mux muy muz
      1   1    1.0000       4.488061       3.023339      -2.961539      -0.031721      -0.877556       0.478424
      2   2   -1.0000       0.461217      -4.197520       1.383079       0.281852      -0.016599      -0.959314
      3   1    1.0000      -3.060607      -4.108090       4.456581       0.604603      -0.285998      -0.743412
      4   2   -1.0000       0.441662      -1.809683      -4.885386      -0.166980      -0.339676      -0.925601
      5   2   -1.0000       2.546882       4.507579       0.283724      -0.637090       0.049841       0.769176
ITEM: TIMESTEP
3100
ITEM: NUMBER OF ATOMS
5
ITEM: BOX BOUNDS ff ff ff
-5.00000000    5.00000000     
-5.00000000    5.00000000     
-5.00000000    5.00000000     
ITEM: ATOMS id type q x y z mux muy muz
      1   1    1.0000       4.519744       3.040942      -2.933290      -0.210296      -0.945652       0.248027
      2   2   -1.0000       0.421357      -4.197755       1.375900       0.289017       0.008358      -0.957288
      3   1    1.0000      -3.111005      -4.123298       4.473807       0.606116      -0.292040      -0.739821
      4   2   -1.0000       0.419341      -1.819965      -4.893341      -0.148039      -0.317003      -0.936800
      5   2   -1.0000       2.627780       4.515702       0.253384      -0.639628       0.048730       0.767139
ITEM: TIMESTEP
3200
ITEM: NUMBER OF ATOMS
5
ITEM: BOX BOUNDS ff ff ff
-5.00000000    5.00000000     
-5.00000000    5.00000000     
-5.00000000    5.00000000     
ITEM: ATOMS id type q x y z mux muy muz
      1   1    1.0000       4.550837       3.058859      -2.904533      -0.377004      -0.926212      -0.000061
      2   2   -1.0000       0.380806      -4.198097       1.369390       0.297476       0.031284      -0.954217
      3   1    1.0000      -3.160562      -4.138408       4.490402       0.608700      -0.295151      -0.736458
      4   2   -1.0000       0.397181      -1.830118      -4.901363      -0.132522      -0.298020      -0.945316
      5   2   -1.0000       2.708953       4.523390       0.222563      -0.641754       0.049429       0.765316
ITEM: TIMESTEP
3300
ITEM: NUMBER OF ATOMS
5
ITEM: BOX BOUNDS ff ff ff
-5.00000000    5.00000000     
-5.00000000    5.00000000     
-5.00000000    5.00000000     
ITEM: ATOMS id type q x y z mux muy muz
      1   1    1.0000       4.581430       3.077074      -2.875245      -0.516985      -0.820757      -0.243072
      2   2   -1.0000       0.339572      -4.198547       1.363548       0.306967       0.052264      -0.950284
      3   1    1.0000      -3.209288      -4.153422       4.506369       0.612174      -0.295748      -0.733332
      4   2   -1.0000       0.375182      -1.840134      -4.909458      -0.120026      -0.282423      -0.951752
      5   2   -1.0000       2.790320       4.530653       0.191245      -0.643205       0.051661       0.763949
ITEM: TIMESTEP
3400
ITEM: NUMBER OF ATOMS
5
ITEM: BOX BOUNDS ff ff ff
-5.00000000    5.00000000     
-5.00000000    5.00000000     
-5.00000000    5.00000000     
ITEM: ATOMS id type q x y z mux muy muz
      1   1    1.0000       4.611607       3.095553      -2.845392      -0.617861      -0.638622      -0.458704
      2   2   -1.0000       0.297663      -4.199104       1.358374       0.317252       0.071382      -0.945651
      3   1    1.0000      -3.257189      -4.168339       4.521711       0.616365      -0.294195      -0.730441
      4   2   -1.0000       0.353337      -1.850005      -4.917634      -0.110157      -0.269901      -0.956566
      5   2   -1.0000       2.871799       4.537522       0.159401      -0.643742       0.055060       0.763259
ITEM: TIMESTEP
3500
ITEM: NUMBER OF ATOMS
5
ITEM: BOX BOUNDS ff ff ff
-5.00000000    5.00000000     
-5.00000000    5.00000000     
-5.00000000    5.00000000     
ITEM: ATOMS id type q x y z mux muy muz
      1   1    1.0000       4.641435       3.114246      -2.814917      -0.670773      -0.396006      -0.627091
      2   2   -1.0000       0.255091      -4.199770       1.353869       0.328113       0.088724      -0.940463
      3   1    1.0000      -3.304266      -4.183158       4.536423       0.621108      -0.290814      -0.727772
      4   2   -1.0000       0.331639      -1.859731      -4.925896      -0.102534      -0.260132      -0.960114
      5   2   -1.0000       2.953317       4.544040       0.126980      -0.643171       0.059193       0.763431
ITEM: TIMESTEP
3600
ITEM: NUMBER OF ATOMS
5
ITEM: BOX BOUNDS ff ff ff
-5.00000000    5.00000000     
-5.00000000    5.00000000     
-5.00000000    5.00000000     
ITEM: ATOMS id type q x y z mux muy muz
      1   1    1.0000       4.670950       3.133095      -2.783744      -0.671083      -0.114551      -0.732479
      2   2   -1.0000       0.211876      -4.200547       1.350038       0.339347       0.104376      -0.934852
      3   1    1.0000      -3.350507      -4.197875       4.550499       0.626246      -0.285898      -0.725313
      4   2   -1.0000       0.310082      -1.869311      -4.934249      -0.096785      -0.252786      -0.962669
      5   2   -1.0000       3.034815       4.550264       0.093915      -0.641369       0.063596       0.764592
ITEM: TIMESTEP
3700
ITEM: NUMBER OF ATOMS
5
ITEM: BOX BOUNDS ff ff ff
-5.00000000    5.00000000     
-5.00000000    5.00000000     
-5.00000000    5.00000000     
ITEM: ATOMS id type q x y z mux muy muz
      1   1    1.0000       4.700148       3.152040      -2.751779      -0.618760       0.180450      -0.764574
      2   2   -1.0000       0.168048      -4.201434       1.346886       0.350771       0.118429      -0.928943
      3   1    1.0000      -3.395892      -4.212479       4.563931       0.631634      -0.279713      -0.723048
      4   2   -1.0000       0.288662      -1.878748      -4.942693      -0.092560      -0.247523      -0.964451
      5   2   -1.0000       3.116251       4.556248       0.060115      -0.638299       0.067825       0.766795
ITEM: TIMESTEP
3800
ITEM: NUMBER OF ATOMS
5
ITEM: BOX BOUNDS ff ff ff
-5.00000000    5.00000000     
-5.00000000    5.00000000     
-5.00000000    5.00000000     
ITEM: ATOMS id type q x y z mux muy muz
      1   1    1.0000       4.728968       3.171024      -2.718910      -0.518447       0.462092      -0.719502
      2   2   -1.0000       0.123652      -4.202433       1.344421       0.362220       0.130979      -0.922844
      3   1    1.0000      -3.440385      -4.226960       4.576703       0.637143      -0.272501      -0.720966
      4   2   -1.0000       0.267380      -1.888044      -4.951226      -0.089532      -0.244003      -0.965633
      5   2   -1.0000       3.197601       4.562039       0.025472      -0.634022       0.071508       0.770002
ITEM: TIMESTEP
3900
ITEM: NUMBER OF ATOMS
5
ITEM: BOX BOUNDS ff ff ff
-5.00000000    5.00000000     
-5.00000000    5.00000000     
-5.00000000    5.00000000     
ITEM: ATOMS id type q x y z mux muy muz