ITEM: TIMESTEP
0
ITEM: NUMBER OF ATOMS
5
ITEM: BOX BOUNDS ff ff ff
-5.00000000    5.00000000     
-5.00000000    5.00000000     
-5.00000000    5.00000000     
ITEM: ATOMS id type q x y z mux muy muz
      1   1    1.0000       2.169354      -4.001470      -3.597519       0.331038      -0.933157      -0.140111
      2   2   -1.0000      -3.403593       4.288711       1.832281      -0.226053       0.570453      -0.789610
      3   1    1.0000       1.554754       0.554993      -2.071681      -0.468475      -0.865662       0.176525
      4   2   -1.0000       1.209289      -0.898583      -3.545857      -0.369582       0.920187      -0.129096
      5   2   -1.0000       3.177245       1.601524       1.310088      -0.897941      -0.437209       0.050488
ITEM: TIMESTEP
100
ITEM: NUMBER OF ATOMS
5
ITEM: BOX BOUNDS ff ff ff
-5.00000000    5.00000000     
-5.00000000    5.00000000     
-5.00000000    5.00000000     
ITEM: ATOMS id type q x y z mux muy muz
      1   1    1.0000       2.105830      -4.015692      -3.631717       0.324329      -0.933615      -0.152230
      2   2   -1.0000      -3.452458       4.269960       1.824787      -0.504962       0.566908      -0.650867
      3   1    1.0000       1.603047       0.559831      -2.045943      -0.464680      -0.867428       0.177879
      4   2   -1.0000       1.248246      -0.905651      -3.547459      -0.367092       0.917639      -0.152254
      5   2   -1.0000       3.202385       1.636726       1.327645      -0.901098      -0.431488       0.042908
ITEM: TIMESTEP
200
ITEM: NUMBER OF ATOMS
5
ITEM: BOX BOUNDS ff ff ff
-5.00000000    5.00000000     
-5.00000000    5.00000000     
-5.00000000    5.00000000     
ITEM: ATOMS id type q x y z mux muy muz
      1   1    1.0000       2.042115      -4.029679      -3.665879       0.318670      -0.933221      -0.165975
      2   2   -1.0000      -3.501503       4.251118       1.817222      -0.733328       0.509595      -0.450047
      3   1    1.0000       1.652098       0.562836      -2.020637      -0.453566      -0.872900       0.179788
      4   2   -1.0000       1.286798      -0.910872      -3.548493      -0.368800       0.907127      -0.202749
      5   2   -1.0000       3.227541       1.671773       1.345099      -0.905201      -0.423225       0.038632
ITEM: TIMESTEP
300
ITEM: NUMBER OF ATOMS
5
ITEM: BOX BOUNDS ff ff ff
-5.00000000    5.00000000     
-5.00000000    5.00000000     
-5.00000000    5.00000000     
ITEM: ATOMS id type q x y z mux muy muz
      1   1    1.0000       1.978225      -4.043428      -3.699989       0.314480      -0.931829      -0.181098
      2   2   -1.0000      -3.550714       4.232186       1.809584      -0.889422       0.406137      -0.209716
      3   1    1.0000       1.701832       0.563947      -1.995938      -0.435364      -0.881764       0.181523
      4   2   -1.0000       1.324994      -0.914181      -3.548793      -0.373075       0.884991      -0.278579
      5   2   -1.0000       3.252711       1.706651       1.362448      -0.910220      -0.412417       0.037581
ITEM: TIMESTEP
400
ITEM: NUMBER OF ATOMS
5
ITEM: BOX BOUNDS ff ff ff
-5.00000000    5.00000000     
-5.00000000    5.00000000     
-5.00000000    5.00000000     
ITEM: ATOMS id type q x y z mux muy muz
      1   1    1.0000       1.914164      -4.056936      -3.734038       0.312169      -0.929322      -0.197259
      2   2   -1.0000      -3.600081       4.213166       1.801874      -0.962030       0.269326       0.044296
      3   1    1.0000       1.752166       0.563041      -1.972103      -0.410368      -0.893586       0.181943
      4   2   -1.0000       1.362905      -0.915450      -3.548115      -0.377540       0.846098      -0.376274
      5   2   -1.0000       3.277895       1.741354       1.379695      -0.916054      -0.399097       0.039588
ITEM: TIMESTEP
500
ITEM: NUMBER OF ATOMS
5
ITEM: BOX BOUNDS ff ff ff
-5.00000000    5.00000000     
-5.00000000    5.00000000     
-5.00000000    5.00000000     
ITEM: ATOMS id type q x y z mux muy muz
      1   1    1.0000       1.849939      -4.070199      -3.768017       0.312103      -0.925624      -0.214036
      2   2   -1.0000      -3.649595       4.194063       1.794094      -0.950966       0.114520       0.287312
      3   1    1.0000       1.803001       0.559945      -1.949473      -0.379007      -0.907815       0.179512
      4   2   -1.0000       1.400615      -0.914507      -3.546133      -0.379247       0.784735      -0.490268
      5   2   -1.0000       3.303088       1.775872       1.396840      -0.922541      -0.383333       0.044417
ITEM: TIMESTEP
600
ITEM: NUMBER OF ATOMS
5
ITEM: BOX BOUNDS ff ff ff
-5.00000000    5.00000000     
-5.00000000    5.00000000     
-5.00000000    5.00000000     
ITEM: ATOMS id type q x y z mux muy muz
      1   1    1.0000       1.785565      -4.083212      -3.801912       0.314562      -0.920712      -0.230954
      2   2   -1.0000      -3.699239       4.174885       1.786249      -0.865338      -0.043077       0.499334
      3   1    1.0000       1.854200       0.554458      -1.928471      -0.341937      -0.923784       0.172342
      4   2   -1.0000       1.438239      -0.911152      -3.542438      -0.374994       0.695838      -0.612527
      5   2   -1.0000       3.328284       1.810196       1.413884      -0.929480      -0.365219       0.051780
ITEM: TIMESTEP
700
ITEM: NUMBER OF ATOMS
5
ITEM: BOX BOUNDS ff ff ff
-5.00000000    5.00000000     
-5.00000000    5.00000000     
-5.00000000    5.00000000     
ITEM: ATOMS id type q x y z mux muy muz
      1   1    1.0000       1.721076      -4.095969      -3.835705       0.319702      -0.914616      -0.247523
      2   2   -1.0000      -3.748983       4.155648       1.778350      -0.720320      -0.190571       0.666949
      3   1    1.0000       1.905574       0.546367      -1.909611      -0.300091      -0.940692       0.158256
      4   2   -1.0000       1.475913      -0.905175      -3.536544      -0.361804       0.576380      -0.732724
      5   2   -1.0000       3.353470       1.844305       1.430822      -0.936648      -0.344856       0.061355
ITEM: TIMESTEP
800
ITEM: NUMBER OF ATOMS
5
ITEM: BOX BOUNDS ff ff ff
-5.00000000    5.00000000     
-5.00000000    5.00000000     
-5.00000000    5.00000000     
ITEM: ATOMS id type q x y z mux muy muz
      1   1    1.0000       1.656538      -4.108460      -3.869362       0.327522      -0.907418      -0.263289
      2   2   -1.0000      -3.798778       4.136375       1.770408      -0.533574      -0.318531       0.783477
      3   1    1.0000       1.956859       0.535473      -1.893481      -0.254703      -0.957566       0.134884
      4   2   -1.0000       1.513806      -0.896380      -3.527895      -0.337496       0.426609      -0.839108
      5   2   -1.0000       3.378623       1.878166       1.447642      -0.943823      -0.322330       0.072814
ITEM: TIMESTEP
900
ITEM: NUMBER OF ATOMS
5
ITEM: BOX BOUNDS ff ff ff
-5.00000000    5.00000000     
-5.00000000    5.00000000     
-5.00000000    5.00000000     
ITEM: ATOMS id type q x y z mux muy muz
      1   1    1.0000       1.592064      -4.120671      -3.902832       0.337851      -0.899245      -0.277875
      2   2   -1.0000      -3.848540       4.117106       1.762444      -0.322302      -0.421146       0.847796
      3   1    1.0000       2.007702       0.521612      -1.880734      -0.207304      -0.973176       0.099770
      4   2   -1.0000       1.552116      -0.884597      -3.515888      -0.301209       0.250749      -0.919999
      5   2   -1.0000       3.403707       1.911724       1.464320      -0.950793      -0.297698       0.085835
ITEM: TIMESTEP
1000
ITEM: NUMBER OF ATOMS
5
ITEM: BOX BOUNDS ff ff ff
-5.00000000    5.00000000     
-5.00000000    5.00000000     
-5.00000000    5.00000000     
ITEM: ATOMS id type q x y z mux muy muz
      1   1    1.0000       1.527825      -4.132586      -3.936037       0.350356      -0.890256      -0.291026
      2   2   -1.0000      -3.898147       4.097895       1.754484      -0.101465      -0.495640       0.862581
      3   1    1.0000       2.057638       0.504672      -1.872069      -0.159691      -0.985875       0.050489
      4   2   -1.0000       1.591066      -0.869704      -3.499886      -0.253757       0.056902      -0.965593
      5   2   -1.0000       3.428667       1.944898       1.480820      -0.957366      -0.270974       0.100117
ITEM: TIMESTEP
1100
ITEM: NUMBER OF ATOMS
5
ITEM: BOX BOUNDS ff ff ff
-5.00000000    5.00000000     
-5.00000000    5.00000000     
-5.00000000    5.00000000     
ITEM: ATOMS id type q x y z mux muy muz
      1   1    1.0000       1.464065      -4.144183      -3.968868       0.364577      -0.880626      -0.302625
      2   2   -1.0000      -3.947424       4.078814       1.746562       0.116832      -0.541407       0.832604
      3   1    1.0000       2.106080       0.484607      -1.868214      -0.113901      -0.993376      -0.015193
      4   2   -1.0000       1.630902      -0.851635      -3.479255      -0.197706      -0.143878      -0.969645
      5   2   -1.0000       3.453426       1.977572       1.497087      -0.963358      -0.242133       0.115381
ITEM: TIMESTEP
1200
ITEM: NUMBER OF ATOMS
5
ITEM: BOX BOUNDS ff ff ff
-5.00000000    5.00000000     
-5.00000000    5.00000000     
-5.00000000    5.00000000     
ITEM: ATOMS id type q x y z mux muy muz
      1   1    1.0000       1.401110      -4.155435      -4.001175       0.379980      -0.870534      -0.312706
      2   2   -1.0000      -3.996129       4.059961       1.738720       0.323130      -0.559162       0.763495
      3   1    1.0000       2.152308       0.461439      -1.869902      -0.072221      -0.992455      -0.099082
      4   2   -1.0000       1.671882      -0.830384      -3.453379      -0.137169      -0.339163      -0.930673
      5   2   -1.0000       3.477878       2.009594       1.513048      -0.968591      -0.211127       0.131368
ITEM: TIMESTEP
1300
ITEM: NUMBER OF ATOMS
5
ITEM: BOX BOUNDS ff ff ff
-5.00000000    5.00000000     
-5.00000000    5.00000000     
-5.00000000    5.00000000     
ITEM: ATOMS id type q x y z mux muy muz
      1   1    1.0000       1.339381      -4.166303      -4.032762       0.396016      -0.860147      -0.321432
      2   2   -1.0000      -4.043945       4.041463       1.731014       0.510013      -0.550346       0.661064
      3   1    1.0000       2.195461       0.435260      -1.877860      -0.037205      -0.978649      -0.202142
      4   2   -1.0000       1.714269      -0.806008      -3.421686      -0.077388      -0.517066      -0.852440
      5   2   -1.0000       3.501882       2.040762       1.528605      -0.972879      -0.177914       0.147831
ITEM: TIMESTEP
1400
ITEM: NUMBER OF ATOMS
5
ITEM: BOX BOUNDS ff ff ff
-5.00000000    5.00000000     
-5.00000000    5.00000000     
-5.00000000    5.00000000     
ITEM: ATOMS id type q x y z mux muy muz
      1   1    1.0000       1.279413      -4.176730      -4.063374       0.412180      -0.849603      -0.329062
      2   2   -1.0000      -4.090465       4.023478       1.723513       0.671448      -0.516802       0.531105
      3   1    1.0000       2.234538       0.406214      -1.892800      -0.011710      -0.946051      -0.323806
      4   2   -1.0000       1.758308      -0.778613      -3.383661      -0.024203      -0.668104      -0.743674
      5   2   -1.0000       3.525254       2.070826       1.543635      -0.976027      -0.142485       0.164528
ITEM: TIMESTEP
1500
ITEM: NUMBER OF ATOMS
5
ITEM: BOX BOUNDS ff ff ff
-5.00000000    5.00000000     
-5.00000000    5.00000000     
-5.00000000    5.00000000     
ITEM: ATOMS id type q x y z mux muy muz
      1   1    1.0000       1.221872      -4.186638      -4.092689       0.428064      -0.839009      -0.335896
      2   2   -1.0000      -4.135171       4.006206       1.716300       0.802313      -0.460711       0.379524
      3   1    1.0000       2.268394       0.374467      -1.915423       0.001135      -0.887431      -0.460940
      4   2   -1.0000       1.804199      -0.748334      -3.338858       0.016453      -0.786689      -0.617130
      5   2   -1.0000       3.547755       2.099474       1.557981      -0.977832      -0.104912       0.181213
ITEM: TIMESTEP
1600
ITEM: NUMBER OF ATOMS
5
ITEM: BOX BOUNDS ff ff ff
-5.00000000    5.00000000     
-5.00000000    5.00000000     
-5.00000000    5.00000000     
ITEM: ATOMS id type q x y z mux muy muz
      1   1    1.0000       1.167589      -4.195913      -4.120297       0.443377      -0.828437      -0.342213
      2   2   -1.0000      -4.177414       3.989896       1.709483       0.898210      -0.384719       0.212626
      3   1    1.0000       2.295755       0.340157      -1.946431      -0.001884      -0.795095      -0.606482
      4   2   -1.0000       1.852043      -0.715286      -3.286894       0.038914      -0.871859      -0.488208
      5   2   -1.0000       3.569077       2.126320       1.571450      -0.978091      -0.065379       0.197643
ITEM: TIMESTEP
1700
ITEM: NUMBER OF ATOMS
5
ITEM: BOX BOUNDS ff ff ff
-5.00000000    5.00000000     
-5.00000000    5.00000000     
-5.00000000    5.00000000     
ITEM: ATOMS id type q x y z mux muy muz
      1   1    1.0000       1.117597      -4.204401      -4.145681       0.457945      -0.817943      -0.348218
      2   2   -1.0000      -4.216382       3.974859       1.703191       0.955640      -0.292154       0.037394
      3   1    1.0000       2.315244       0.303278      -1.986557      -0.023546      -0.663100      -0.748161
      4   2   -1.0000       1.901767      -0.679450      -3.227440       0.037943      -0.926874      -0.373451
      5   2   -1.0000       3.588822       2.150888       1.583799      -0.976626      -0.024227       0.213577
ITEM: TIMESTEP
1800
ITEM: NUMBER OF ATOMS
5
ITEM: BOX BOUNDS ff ff ff
-5.00000000    5.00000000     
-5.00000000    5.00000000     
-5.00000000    5.00000000     
ITEM: ATOMS id type q x y z mux muy muz
      1   1    1.0000       1.073172      -4.211904      -4.168199       0.471702      -0.807578      -0.353998
      2   2   -1.0000      -4.251072       3.961480       1.697587       0.972513      -0.187206      -0.138466
      3   1    1.0000       2.325482       0.263432      -2.036612      -0.065220      -0.491481      -0.868443
      4   2   -1.0000       1.952978      -0.640427      -3.160191       0.008880      -0.957241      -0.289154
      5   2   -1.0000       3.606489       2.172594       1.594727      -0.973307       0.018045       0.228797
ITEM: TIMESTEP
1900
ITEM: NUMBER OF ATOMS
5
ITEM: BOX BOUNDS ff ff ff
-5.00000000    5.00000000     
-5.00000000    5.00000000     
-5.00000000    5.00000000     
ITEM: ATOMS id type q x y z mux muy muz
      1   1    1.0000       1.035811      -4.218180      -4.187096       0.484680      -0.797395      -0.359509
      2   2   -1.0000      -4.280308       3.950210       1.692858       0.948738      -0.074741      -0.307099
      3   1    1.0000       2.325327       0.219243      -2.097552      -0.125573      -0.292573      -0.947962
      4   2   -1.0000       2.004747      -0.596854      -3.084783      -0.051525      -0.966856      -0.250068
      5   2   -1.0000       3.621471       2.190756       1.603884      -0.968082       0.060859       0.243134
ITEM: TIMESTEP
2000
ITEM: NUMBER OF ATOMS
5
ITEM: BOX BOUNDS ff ff ff
-5.00000000    5.00000000     
-5.00000000    5.00000000     
-5.00000000    5.00000000     
ITEM: ATOMS id type q x y z mux muy muz
      1   1    1.0000       1.007055      -4.222983      -4.201598       0.497061      -0.787389      -0.364621
      2   2   -1.0000      -4.302875       3.941514       1.689202       0.885890       0.040800      -0.462097
      3   1    1.0000       2.314458       0.166894      -2.170733      -0.199791      -0.098164      -0.974909
      4   2   -1.0000       2.055287      -0.544931      -3.000473      -0.142127      -0.952974      -0.267658
      5   2   -1.0000       3.633124       2.204681       1.610914      -0.960926       0.103908       0.256562
ITEM: TIMESTEP
2100
ITEM: NUMBER OF ATOMS
5
ITEM: BOX BOUNDS ff ff ff
-5.00000000    5.00000000     
-5.00000000    5.00000000     
-5.00000000    5.00000000     
ITEM: ATOMS id type q x y z mux muy muz
      1   1    1.0000       0.987993      -4.226144      -4.211164       0.509370      -0.777310      -0.369232
      2   2   -1.0000      -4.317906       3.935726       1.686758       0.783645       0.157876      -0.600813
      3   1    1.0000       2.304434       0.124825      -2.226461      -0.280036       0.031392      -0.959476
      4   2   -1.0000       2.091562      -0.503122      -2.937395      -0.250088      -0.903610      -0.347772
      5   2   -1.0000       3.640967       2.213891       1.615574      -0.951591       0.148046       0.269363
ITEM: TIMESTEP
2200
ITEM: NUMBER OF ATOMS
5
ITEM: BOX BOUNDS ff ff ff
-5.00000000    5.00000000     
-5.00000000    5.00000000     
-5.00000000    5.00000000     
ITEM: ATOMS id type q x y z mux muy muz
      1   1    1.0000       0.924573      -4.236613      -4.242858       0.522526      -0.766555      -0.373309
      2   2   -1.0000      -4.368121       3.916398       1.678570       0.634487       0.277523      -0.721393
      3   1    1.0000       2.353571       0.182704      -2.161116      -0.353127       0.022061      -0.935315
      4   2   -1.0000       2.129655      -0.561849      -2.978398      -0.342059      -0.808963      -0.478095
      5   2   -1.0000       3.667370       2.244535       1.631114      -0.939228       0.195590       0.282127
ITEM: TIMESTEP
2300
ITEM: NUMBER OF ATOMS
5
ITEM: BOX BOUNDS ff ff ff
-5.00000000    5.00000000     
-5.00000000    5.00000000     
-5.00000000    5.00000000     
ITEM: ATOMS id type q x y z mux muy muz
      1   1    1.0000       0.878115      -4.244254      -4.266013       0.535645      -0.755973      -0.376284
      2   2   -1.0000      -4.404999       3.902206       1.672544       0.454296       0.382842      -0.804392
      3   1    1.0000       2.392244       0.201798      -2.125464      -0.395386      -0.115992      -0.911162
      4   2   -1.0000       2.154857      -0.581585      -2.996275      -0.384352      -0.692646      -0.610340
      5   2   -1.0000       3.686832       2.267009       1.642521      -0.924700       0.242186       0.293728
ITEM: TIMESTEP
2400
ITEM: NUMBER OF ATOMS
5
ITEM: BOX BOUNDS ff ff ff
-5.00000000    5.00000000     
-5.00000000    5.00000000     
-5.00000000    5.00000000     
ITEM: ATOMS id type q x y z mux muy muz
      1   1    1.0000       0.813921      -4.254774      -4.297915       0.547577      -0.746599      -0.377822
      2   2   -1.0000      -4.456090       3.882552       1.664176       0.272803       0.461555      -0.844124
      3   1    1.0000       2.442858       0.178484      -2.116092      -0.388765      -0.327679      -0.861097
      4   2   -1.0000       2.192466      -0.559191      -2.981186      -0.373888      -0.586846      -0.718206
      5   2   -1.0000       3.713893       2.298104       1.658329      -0.909870       0.283316       0.303099
ITEM: TIMESTEP
2500
ITEM: NUMBER OF ATOMS
5
ITEM: BOX BOUNDS ff ff ff
-5.00000000    5.00000000     
-5.00000000    5.00000000     
-5.00000000    5.00000000     
ITEM: ATOMS id type q x y z mux muy muz
      1   1    1.0000       0.757392      -4.264018      -4.325931       0.557994      -0.738727      -0.378055
      2   2   -1.0000      -4.501185       3.865209       1.656777       0.106469       0.515103      -0.850490
      3   1    1.0000       2.482737       0.117226      -2.145299      -0.327893      -0.555210      -0.764348
      4   2   -1.0000       2.230236      -0.498749      -2.930539      -0.322395      -0.508441      -0.798467
      5   2   -1.0000       3.737869       2.325507       1.672304      -0.895833       0.318308       0.310102
ITEM: TIMESTEP
2600
ITEM: NUMBER OF ATOMS
5
ITEM: BOX BOUNDS ff ff ff
-5.00000000    5.00000000     
-5.00000000    5.00000000     
-5.00000000    5.00000000     
ITEM: ATOMS id type q x y z mux muy muz
      1   1    1.0000       0.715809      -4.270813      -4.346471       0.567131      -0.732145      -0.377261
      2   2   -1.0000      -4.534449       3.852424       1.651311      -0.043778       0.549911      -0.834075
      3   1    1.0000       2.528467       0.095497      -2.130126      -0.229768      -0.741258      -0.630669
      4   2   -1.0000       2.241570      -0.477591      -2.930048      -0.249891      -0.455934      -0.854212
      5   2   -1.0000       3.755652       2.345659       1.682646      -0.882646       0.348823       0.315054
ITEM: TIMESTEP
2700
ITEM: NUMBER OF ATOMS
5
ITEM: BOX BOUNDS ff ff ff
-5.00000000    5.00000000     
-5.00000000    5.00000000     
-5.00000000    5.00000000     
ITEM: ATOMS id type q x y z mux muy muz
      1   1    1.0000       0.673982      -4.277642      -4.367049       0.576445      -0.725755      -0.375487
      2   2   -1.0000      -4.568006       3.839536       1.645791      -0.198424       0.572517      -0.795520
      3   1    1.0000       2.586161       0.107491      -2.075778      -0.128658      -0.862684      -0.489105
      4   2   -1.0000       2.241202      -0.490092      -2.968762      -0.181513      -0.404864      -0.896180
      5   2   -1.0000       3.773710       2.365881       1.693110      -0.868279       0.380084       0.318791
ITEM: TIMESTEP
2800
ITEM: NUMBER OF ATOMS
5
ITEM: BOX BOUNDS ff ff ff
-5.00000000    5.00000000     
-5.00000000    5.00000000     
-5.00000000    5.00000000     
ITEM: ATOMS id type q x y z mux muy muz
      1   1    1.0000       0.616560      -4.286988      -4.395195       0.587916      -0.718143      -0.372323
      2   2   -1.0000      -4.614180       3.821817       1.638194      -0.382248       0.580417      -0.719029
      3   1    1.0000       2.637148       0.096637      -2.057971      -0.048942      -0.930796      -0.362249
      4   2   -1.0000       2.268829      -0.479826      -2.965232      -0.132383      -0.331758      -0.934030
      5   2   -1.0000       3.798692       2.393535       1.707515      -0.849355       0.418340       0.321850
ITEM: TIMESTEP
2900
ITEM: NUMBER OF ATOMS
5
ITEM: BOX BOUNDS ff ff ff
-5.00000000    5.00000000     
-5.00000000    5.00000000     
-5.00000000    5.00000000     
ITEM: ATOMS id type q x y z mux muy muz
      1   1    1.0000       0.555190      -4.296933      -4.425175       0.602411      -0.708631      -0.367346
      2   2   -1.0000      -4.663612       3.802862       1.630062      -0.591171       0.558115      -0.582258
      3   1    1.0000       2.664454       0.066955      -2.086440      -0.025178      -0.955087      -0.295253
      4   2   -1.0000       2.325463      -0.450671      -2.914058      -0.123701      -0.227220      -0.965955
      5   2   -1.0000       3.825553       2.422962       1.722923      -0.823587       0.465626       0.323878
ITEM: TIMESTEP
3000
ITEM: NUMBER OF ATOMS
5
ITEM: BOX BOUNDS ff ff ff
-5.00000000    5.00000000     
-5.00000000    5.00000000     
-5.00000000    5.00000000     
ITEM: ATOMS id type q x y z mux muy muz
      1   1    1.0000       0.502465      -4.305432      -4.450836       0.618634      -0.697944      -0.360786
      2   2   -1.0000      -4.706161       3.786562       1.623062      -0.779298       0.492672      -0.387258
      3   1    1.0000       2.691195       0.074992      -2.078941      -0.094102      -0.934031      -0.344574
      4   2   -1.0000       2.370774      -0.459076      -2.902146      -0.177336      -0.112587      -0.977689
      5   2   -1.0000       3.848776       2.448129       1.736173      -0.792475       0.516673       0.324087
ITEM: TIMESTEP
3100
ITEM: NUMBER OF ATOMS
5
ITEM: BOX BOUNDS ff ff ff
-5.00000000    5.00000000     
-5.00000000    5.00000000     
-5.00000000    5.00000000     
ITEM: ATOMS id type q x y z mux muy muz
      1   1    1.0000       0.450568      -4.313741      -4.475986       0.633255      -0.688272      -0.353934
      2   2   -1.0000      -4.748137       3.770498       1.616148      -0.895758       0.402733      -0.188215
      3   1    1.0000       2.723520       0.111385      -2.038856      -0.214644      -0.854797      -0.472494
      4   2   -1.0000       2.409308      -0.495768      -2.923236      -0.265094      -0.047735      -0.963040
      5   2   -1.0000       3.871790       2.472801       1.749242      -0.762947       0.560289       0.322471
ITEM: TIMESTEP
3200
ITEM: NUMBER OF ATOMS
5
ITEM: BOX BOUNDS ff ff ff
-5.00000000    5.00000000     
-5.00000000    5.00000000     
-5.00000000    5.00000000     
ITEM: ATOMS id type q x y z mux muy muz
      1   1    1.0000       0.390537      -4.323284      -4.504956       0.646420      -0.679598      -0.346825
      2   2   -1.0000      -4.796806       3.751889       1.608114      -0.952644       0.304063      -0.003975
      3   1    1.0000       2.743503       0.119910      -2.038575      -0.324810      -0.723786      -0.608796
      4   2   -1.0000       2.471240      -0.504607      -2.901679      -0.349507      -0.058098      -0.935131
      5   2   -1.0000       3.898575       2.501267       1.764408      -0.735951       0.596880       0.319547
ITEM: TIMESTEP
3300
ITEM: NUMBER OF ATOMS
5
ITEM: BOX BOUNDS ff ff ff
-5.00000000    5.00000000     
-5.00000000    5.00000000     
-5.00000000    5.00000000     
ITEM: ATOMS id type q x y z mux muy muz
      1   1    1.0000       0.333732      -4.332262      -4.532263       0.659175      -0.671272      -0.338942
      2   2   -1.0000      -4.842971       3.734250       1.600468      -0.965222       0.198517       0.170112
      3   1    1.0000       2.758376       0.098913      -2.065575      -0.389197      -0.566452      -0.726400
      4   2   -1.0000       2.533844      -0.483908      -2.854147      -0.405527      -0.164679      -0.899127
      5   2   -1.0000       3.924068       2.528181       1.778830      -0.709877       0.629762       0.315395
ITEM: TIMESTEP
3400
ITEM: NUMBER OF ATOMS
5
ITEM: BOX BOUNDS ff ff ff
-5.00000000    5.00000000     
-5.00000000    5.00000000     
-5.00000000    5.00000000     
ITEM: ATOMS id type q x y z mux muy muz
      1   1    1.0000       0.272288      -4.341938      -4.561695       0.671417      -0.663374      -0.330355
      2   2   -1.0000      -4.893026       3.715135       1.592145      -0.940023       0.091579       0.328588
      3   1    1.0000       2.805000       0.108323      -2.027976      -0.382008      -0.434010      -0.815908
      4   2   -1.0000       2.570989      -0.493650      -2.869688      -0.396789      -0.371244      -0.839486
      5   2   -1.0000       3.951797       2.557305       1.794526      -0.684968       0.659265       0.310143
ITEM: TIMESTEP
3500
ITEM: NUMBER OF ATOMS
5
ITEM: BOX BOUNDS ff ff ff
-5.00000000    5.00000000     
-5.00000000    5.00000000     
-5.00000000    5.00000000     
ITEM: ATOMS id type q x y z mux muy muz
      1   1    1.0000       0.218224      -4.350429      -4.587503       0.682262      -0.656462      -0.321833
      2   2   -1.0000      -4.937165       3.698289       1.584774      -0.888675      -0.005063       0.458509
      3   1    1.0000       2.855799       0.107791      -1.992648      -0.322040      -0.354957      -0.877665
      4   2   -1.0000       2.593861      -0.493419      -2.885737      -0.320470      -0.591916      -0.739550
      5   2   -1.0000       3.976330       2.582943       1.808426      -0.663094       0.683861       0.304368
ITEM: TIMESTEP
3600
ITEM: NUMBER OF ATOMS
5
ITEM: BOX BOUNDS ff ff ff
-5.00000000    5.00000000     
-5.00000000    5.00000000     
-5.00000000    5.00000000     
ITEM: ATOMS id type q x y z mux muy muz
      1   1    1.0000       0.155927      -4.360185      -4.617144       0.692324      -0.650110      -0.313120
      2   2   -1.0000      -4.988121       3.678851       1.576232      -0.817784      -0.094303       0.567747
      3   1    1.0000       2.904803       0.069830      -2.001247      -0.240420      -0.313317      -0.918711
      4   2   -1.0000       2.629691      -0.455801      -2.855059      -0.207265      -0.763327      -0.611861
      5   2   -1.0000       4.004749       2.612480       1.824531      -0.643080       0.705467       0.297934
ITEM: TIMESTEP
3700
ITEM: NUMBER OF ATOMS
5
ITEM: BOX BOUNDS ff ff ff
-5.00000000    5.00000000     
-5.00000000    5.00000000     
-5.00000000    5.00000000     
ITEM: ATOMS id type q x y z mux muy muz
      1   1    1.0000       0.101684      -4.368654      -4.642874       0.703123      -0.643284      -0.302991
      2   2   -1.0000      -4.967498       3.661912       1.568758      -0.717849      -0.187783       0.670396
      3   1    1.0000       2.951205       0.050601      -1.992942      -0.160012      -0.287204      -0.944410
      4   2   -1.0000       2.657089      -0.436856      -2.844253      -0.092550      -0.865417      -0.492431
      5   2   -1.0000       4.029626       2.638172       1.838623      -0.621846       0.727548       0.289796
ITEM: TIMESTEP
3800
ITEM: NUMBER OF ATOMS
5
ITEM: BOX BOUNDS ff ff ff
-5.00000000    5.00000000     
-5.00000000    5.00000000     
-5.00000000    5.00000000     
ITEM: ATOMS id type q x y z mux muy muz
      1   1    1.0000       0.044012      -4.377617      -4.670142       0.717551      -0.633913      -0.288573
      2   2   -1.0000      -4.920450       3.643892       1.560777      -0.549811      -0.304376       0.777858
      3   1    1.0000       3.005045       0.064057      -1.947271      -0.099214      -0.253924      -0.962122
      4   2   -1.0000       2.681631      -0.450593      -2.869718      -0.006134      -0.907528      -0.419946
      5   2   -1.0000       4.056221       2.665435       1.853666      -0.593461       0.755547       0.277404
ITEM: TIMESTEP
3900
ITEM: NUMBER OF ATOMS
5
ITEM: BOX BOUNDS ff ff ff
-5.00000000    5.00000000     
-5.00000000    5.00000000     
-5.00000000    5.00000000     
ITEM: ATOMS id type q x y z mux muy muz