ITEM: TIMESTEP
0
ITEM: NUMBER OF ATOMS
5
ITEM: BOX BOUNDS ff ff ff
-5.00000000    5.00000000     
-5.00000000    5.00000000     
-5.00000000    5.00000000     
ITEM: ATOMS id type q x y z mux muy muz
      1   1    1.0000      -2.076531      -1.696900       1.814951      -0.985342       0.170073       0.013298
      2   2   -1.0000      -1.505395      -2.873726      -1.256407      -0.031133       0.888312      -0.458184
      3   1    1.0000      -2.279442      -4.116816       3.301841       0.404074      -0.369219      -0.836900
      4   2   -1.0000       3.530663      -2.803010      -4.352304      -0.785705      -0.061389      -0.615547
      5   2   -1.0000       2.388745      -2.884289      -1.066109       0.496401      -0.653310       0.571640
ITEM: TIMESTEP
100
ITEM: NUMBER OF ATOMS
5
ITEM: BOX BOUNDS ff ff ff
-5.00000000    5.00000000     
-5.00000000    5.00000000     
-5.00000000    5.00000000     
ITEM: ATOMS id type q x y z mux muy muz
      1   1    1.0000      -2.062853      -1.697602       1.795035      -0.984538       0.175016       0.007327
      2   2   -1.0000      -1.493312      -2.869550      -1.232456       0.182385       0.883376      -0.431721
      3   1    1.0000      -2.307305      -4.111572       3.346652       0.400975      -0.368043      -0.838906
      4   2   -1.0000       3.485969      -2.854380      -4.355303      -0.789899      -0.064481      -0.609837
      5   2   -1.0000       2.435540      -2.841637      -1.111955       0.502269      -0.652772       0.567110
ITEM: TIMESTEP
200
ITEM: NUMBER OF ATOMS
5
ITEM: BOX BOUNDS ff ff ff
-5.00000000    5.00000000     
-5.00000000    5.00000000     
-5.00000000    5.00000000     
ITEM: ATOMS id type q x y z mux muy muz
      1   1    1.0000      -2.048908      -1.697710       1.773866      -0.981856       0.188896      -0.016629
      2   2   -1.0000      -1.482476      -2.865331      -1.206689       0.393574       0.829826      -0.395586
      3   1    1.0000      -2.334477      -4.107172       3.391034       0.400866      -0.373193      -0.836680
      4   2   -1.0000       3.441843      -2.906287      -4.359204      -0.801661      -0.066818      -0.594032
      5   2   -1.0000       2.482057      -2.798241      -1.157034       0.515014      -0.655915       0.551848
ITEM: TIMESTEP
300
ITEM: NUMBER OF ATOMS
5
ITEM: BOX BOUNDS ff ff ff
-5.00000000    5.00000000     
-5.00000000    5.00000000     
-5.00000000    5.00000000     
ITEM: ATOMS id type q x y z mux muy muz
      1   1    1.0000      -2.034690      -1.697294       1.751336      -0.975280       0.212104      -0.061974
      2   2   -1.0000      -1.472748      -2.860991      -1.179074       0.587366       0.729226      -0.351043
      3   1    1.0000      -2.360987      -4.103604       3.434993       0.403878      -0.385247      -0.829739
      4   2   -1.0000       3.398340      -2.958733      -4.364036      -0.821504      -0.067706      -0.566168
      5   2   -1.0000       2.528124      -2.754120      -1.201247       0.535747      -0.662695       0.523270
ITEM: TIMESTEP
400
ITEM: NUMBER OF ATOMS
5
ITEM: BOX BOUNDS ff ff ff
-5.00000000    5.00000000     
-5.00000000    5.00000000     
-5.00000000    5.00000000     
ITEM: ATOMS id type q x y z mux muy muz
      1   1    1.0000      -2.020185      -1.696462       1.727333      -0.960772       0.244179      -0.131503
      2   2   -1.0000      -1.464013      -2.856439      -1.149585       0.749862       0.589056      -0.301198
      3   1    1.0000      -2.386861      -4.100816       3.478529       0.409960      -0.404224      -0.817640
      4   2   -1.0000       3.355510      -3.011711      -4.369801      -0.848976      -0.066284      -0.524257
      5   2   -1.0000       2.573589      -2.709314      -1.244503       0.564727      -0.672282       0.478664
ITEM: TIMESTEP
500
ITEM: NUMBER OF ATOMS
5
ITEM: BOX BOUNDS ff ff ff
-5.00000000    5.00000000     
-5.00000000    5.00000000     
-5.00000000    5.00000000     
ITEM: ATOMS id type q x y z mux muy muz
      1   1    1.0000      -2.005374      -1.695365       1.701739      -0.932032       0.283202      -0.226082
      2   2   -1.0000      -1.456190      -2.851572      -1.118195       0.871183       0.422137      -0.250681
      3   1    1.0000      -2.412123      -4.098727       3.521628       0.418827      -0.429397      -0.800126
      4   2   -1.0000       3.313398      -3.065196      -4.376465      -0.882236      -0.061612      -0.466759
      5   2   -1.0000       2.618328      -2.663881      -1.286735       0.600799      -0.682786       0.415744
ITEM: TIMESTEP
600
ITEM: NUMBER OF ATOMS
5
ITEM: BOX BOUNDS ff ff ff
-5.00000000    5.00000000     
-5.00000000    5.00000000     
-5.00000000    5.00000000     
ITEM: ATOMS id type q x y z mux muy muz
      1   1    1.0000      -1.990235      -1.694196       1.674429      -0.881181       0.325311      -0.343063
      2   2   -1.0000      -1.449226      -2.846276      -1.084866       0.947907       0.244052      -0.204723
      3   1    1.0000      -2.436788      -4.097226       3.564264       0.429941      -0.459249      -0.777330
      4   2   -1.0000       3.272043      -3.119136      -4.383954      -0.917927      -0.052852      -0.393213
      5   2   -1.0000       2.662245      -2.617908      -1.327901       0.641074      -0.691256       0.333450
ITEM: TIMESTEP
700
ITEM: NUMBER OF ATOMS
5
ITEM: BOX BOUNDS ff ff ff
-5.00000000    5.00000000     
-5.00000000    5.00000000     
-5.00000000    5.00000000     
ITEM: ATOMS id type q x y z mux muy muz
      1   1    1.0000      -1.974743      -1.693176       1.645269      -0.800635       0.364791      -0.475302
      2   2   -1.0000      -1.443097      -2.840427      -1.049543       0.983356       0.069290      -0.167960
      3   1    1.0000      -2.460869      -4.096188       3.606395       0.442593      -0.491703      -0.749892
      4   2   -1.0000       3.231478      -3.173443      -4.392161      -0.951628      -0.039483      -0.304706
      5   2   -1.0000       2.705270      -2.571508      -1.367986       0.681207      -0.694146       0.232634
ITEM: TIMESTEP
800
ITEM: NUMBER OF ATOMS
5
ITEM: BOX BOUNDS ff ff ff
-5.00000000    5.00000000     
-5.00000000    5.00000000     
-5.00000000    5.00000000     
ITEM: ATOMS id type q x y z mux muy muz
      1   1    1.0000      -1.958876      -1.692548       1.614102      -0.685501       0.394938      -0.611647
      2   2   -1.0000      -1.437790      -2.833896      -1.012145       0.985361      -0.091881      -0.143599
      3   1    1.0000      -2.484377      -4.095482       3.647965       0.456059      -0.524591      -0.718898
      4   2   -1.0000       3.191728      -3.227991      -4.400954      -0.978776      -0.021432      -0.203811
      5   2   -1.0000       2.747353      -2.524825      -1.406995       0.716273      -0.688085       0.116157
ITEM: TIMESTEP
900
ITEM: NUMBER OF ATOMS
5
ITEM: BOX BOUNDS ff ff ff
-5.00000000    5.00000000     
-5.00000000    5.00000000     
-5.00000000    5.00000000     
ITEM: ATOMS id type q x y z mux muy muz
      1   1    1.0000      -1.942615      -1.692562       1.580751      -0.535386       0.409341      -0.738784
      2   2   -1.0000      -1.433296      -2.826546      -0.972560       0.962979      -0.234294      -0.133331
      3   1    1.0000      -2.507319      -4.094987       3.688905       0.469739      -0.556096      -0.685641
      4   2   -1.0000       3.152815      -3.282615      -4.410187      -0.995569       0.000937      -0.094034
      5   2   -1.0000       2.788454      -2.478032      -1.444937       0.741764      -0.670560      -0.011647
ITEM: TIMESTEP
1000
ITEM: NUMBER OF ATOMS
5
ITEM: BOX BOUNDS ff ff ff
-5.00000000    5.00000000     
-5.00000000    5.00000000     
-5.00000000    5.00000000     
ITEM: ATOMS id type q x y z mux muy muz
      1   1    1.0000      -1.925959      -1.693462       1.545015      -0.354935       0.403021      -0.843561
      2   2   -1.0000      -1.429594      -2.818240      -0.930644       0.923975      -0.356776      -0.137775
      3   1    1.0000      -2.529705      -4.094599       3.729132       0.483214      -0.584997      -0.651371
      4   2   -1.0000       3.114762      -3.337116      -4.419720      -0.999419       0.026943       0.020887
      5   2   -1.0000       2.828536      -2.431324      -1.481810       0.754249      -0.640205      -0.145763
ITEM: TIMESTEP
1100
ITEM: NUMBER OF ATOMS
5
ITEM: BOX BOUNDS ff ff ff
-5.00000000    5.00000000     
-5.00000000    5.00000000     
-5.00000000    5.00000000     
ITEM: ATOMS id type q x y z mux muy muz
      1   1    1.0000      -1.908932      -1.695478       1.506668      -0.153256       0.373140      -0.915029
      2   2   -1.0000      -1.426646      -2.808838      -0.886227       0.873739      -0.460354      -0.157018
      3   1    1.0000      -2.551534      -4.094242       3.768548       0.496230      -0.610666      -0.617125
      4   2   -1.0000       3.077598      -3.391263      -4.429426      -0.988930       0.055739       0.137517
      5   2   -1.0000       2.867553      -2.384921      -1.517589       0.751566      -0.596736      -0.281167
ITEM: TIMESTEP
1200
ITEM: NUMBER OF ATOMS
5
ITEM: BOX BOUNDS ff ff ff
-5.00000000    5.00000000     
-5.00000000    5.00000000     
-5.00000000    5.00000000     
ITEM: ATOMS id type q x y z mux muy muz
      1   1    1.0000      -1.891590      -1.698817       1.465465       0.057373       0.319256      -0.945930
      2   2   -1.0000      -1.424387      -2.798201      -0.839116       0.815247      -0.546724      -0.190959
      3   1    1.0000      -2.572800      -4.093862       3.807041       0.508646      -0.632956      -0.583649
      4   2   -1.0000       3.041370      -3.444804      -4.439200      -0.963599       0.086427       0.252998
      5   2   -1.0000       2.905446      -2.339058      -1.552217       0.732708      -0.540709      -0.413247
ITEM: TIMESTEP
1300
ITEM: NUMBER OF ATOMS
5
ITEM: BOX BOUNDS ff ff ff
-5.00000000    5.00000000     
-5.00000000    5.00000000     
-5.00000000    5.00000000     
ITEM: ATOMS id type q x y z mux muy muz
      1   1    1.0000      -1.874037      -1.703668       1.421146       0.263164       0.243198      -0.933595
      2   2   -1.0000      -1.422722      -2.786193      -0.789101       0.749471      -0.617229      -0.239418
      3   1    1.0000      -2.593478      -4.093433       3.844481       0.520387      -0.652045      -0.551394
      4   2   -1.0000       3.006147      -3.497461      -4.448953      -0.923441       0.118138       0.365103
      5   2   -1.0000       2.942129      -2.293986      -1.585601       0.697568      -0.473239      -0.538001
ITEM: TIMESTEP
1400
ITEM: NUMBER OF ATOMS
5
ITEM: BOX BOUNDS ff ff ff
-5.00000000    5.00000000     
-5.00000000    5.00000000     
-5.00000000    5.00000000     
ITEM: ATOMS id type q x y z mux muy muz
      1   1    1.0000      -1.856426      -1.710197       1.373444       0.450589       0.148621      -0.880273
      2   2   -1.0000      -1.421528      -2.772680      -0.735959       0.675904      -0.672263      -0.302019
      3   1    1.0000      -2.613526      -4.092954       3.880718       0.531409      -0.668305      -0.520551
      4   2   -1.0000       2.972025      -3.548938      -4.458613      -0.868658       0.150060       0.472140
      5   2   -1.0000       2.977495      -2.249972      -1.617617       0.646675      -0.395767      -0.652058
ITEM: TIMESTEP
1500
ITEM: NUMBER OF ATOMS
5
ITEM: BOX BOUNDS ff ff ff
-5.00000000    5.00000000     
-5.00000000    5.00000000     
-5.00000000    5.00000000     
ITEM: ATOMS id type q x y z mux muy muz
      1   1    1.0000      -1.838967      -1.718561       1.322081       0.608018       0.040301      -0.792900
      2   2   -1.0000      -1.420658      -2.757532      -0.679461       0.593091      -0.710935      -0.377908
      3   1    1.0000      -2.632874      -4.092437       3.915575       0.541691      -0.682192      -0.491106
      4   2   -1.0000       2.939136      -3.598909      -4.468114      -0.799399       0.181433       0.572750
      5   2   -1.0000       3.011402      -2.207302      -1.648108       0.580980      -0.309906      -0.752609
ITEM: TIMESTEP
1600
ITEM: NUMBER OF ATOMS
5
ITEM: BOX BOUNDS ff ff ff
-5.00000000    5.00000000     
-5.00000000    5.00000000     
-5.00000000    5.00000000     
ITEM: ATOMS id type q x y z mux muy muz
      1   1    1.0000      -1.821916      -1.728915       1.266771       0.726970      -0.076743      -0.682367
      2   2   -1.0000      -1.419950      -2.740616      -0.619359       0.499216      -0.730941      -0.465304
      3   1    1.0000      -2.651423      -4.091907       3.948848       0.551228      -0.694169      -0.462901
      4   2   -1.0000       2.907651      -3.647017      -4.477393      -0.715664       0.211510       0.665649
      5   2   -1.0000       3.043677      -2.166287      -1.676895       0.501721      -0.217379      -0.837271
ITEM: TIMESTEP
1700
ITEM: NUMBER OF ATOMS
5
ITEM: BOX BOUNDS ff ff ff
-5.00000000    5.00000000     
-5.00000000    5.00000000     
-5.00000000    5.00000000     
ITEM: ATOMS id type q x y z mux muy muz
      1   1    1.0000      -1.805564      -1.741431       1.207206       0.802753      -0.198126      -0.562435
      2   2   -1.0000      -1.419251      -2.721789      -0.555388       0.392851      -0.728706      -0.560941
      3   1    1.0000      -2.669037      -4.091391       3.980296       0.560040      -0.704644      -0.435698
      4   2   -1.0000       2.877786      -3.692853      -4.486374      -0.617347       0.239490       0.749351
      5   2   -1.0000       3.074106      -2.127277      -1.703768       0.410390      -0.120036      -0.903975
ITEM: TIMESTEP
1800
ITEM: NUMBER OF ATOMS
5
ITEM: BOX BOUNDS ff ff ff
-5.00000000    5.00000000     
-5.00000000    5.00000000     
-5.00000000    5.00000000     
ITEM: ATOMS id type q x y z mux muy muz
      1   1    1.0000      -1.790189      -1.756336       1.143041       0.834266      -0.320736      -0.448474
      2   2   -1.0000      -1.418472      -2.700873      -0.487236       0.274013      -0.699961      -0.659524
      3   1    1.0000      -2.685541      -4.090916       4.009623       0.568174      -0.713929      -0.409248
      4   2   -1.0000       2.849817      -3.735939      -4.494965      -0.504473       0.264465       0.821928
      5   2   -1.0000       3.102424      -2.090677      -1.728490       0.308819      -0.019954      -0.950912
ITEM: TIMESTEP
1900
ITEM: NUMBER OF ATOMS
5
ITEM: BOX BOUNDS ff ff ff
-5.00000000    5.00000000     
-5.00000000    5.00000000     
-5.00000000    5.00000000     
ITEM: ATOMS id type q x y z mux muy muz
      1   1    1.0000      -1.775961      -1.773972       1.073862       0.822878      -0.442702      -0.356211
      2   2   -1.0000      -1.417682      -2.677597      -0.414527       0.145590      -0.641090      -0.753529
      3   1    1.0000      -2.700706      -4.090502       4.036470       0.575717      -0.722208      -0.383360
      4   2   -1.0000       2.824087      -3.775698      -4.503048      -0.377628       0.285376       0.880885
      5   2   -1.0000       3.128301      -2.056972      -1.750784       0.199341       0.080437      -0.976623
ITEM: TIMESTEP
2000
ITEM: NUMBER OF ATOMS
5
ITEM: BOX BOUNDS ff ff ff
-5.00000000    5.00000000     
-5.00000000    5.00000000     
-5.00000000    5.00000000     
ITEM: ATOMS id type q x y z mux muy muz
      1   1    1.0000      -1.762747      -1.794946       0.999165       0.770593      -0.562088      -0.300404
      2   2   -1.0000      -1.417318      -2.651466      -0.336789       0.015006      -0.551567      -0.833995
      3   1    1.0000      -2.714251      -4.090157       4.060391       0.582804      -0.729518      -0.357970
      4   2   -1.0000       2.801026      -3.811423      -4.510467      -0.238527       0.301067       0.923289
      5   2   -1.0000       3.151330      -2.026750      -1.770328       0.084969       0.178278      -0.980305
ITEM: TIMESTEP
2100
ITEM: NUMBER OF ATOMS
5
ITEM: BOX BOUNDS ff ff ff
-5.00000000    5.00000000     
-5.00000000    5.00000000     
-5.00000000    5.00000000     
ITEM: ATOMS id type q x y z mux muy muz
      1   1    1.0000      -1.749718      -1.820417       0.918354       0.678396      -0.673777      -0.292921
      2   2   -1.0000      -1.418577      -2.621463      -0.253460      -0.104406      -0.437435      -0.893169
      3   1    1.0000      -2.725838      -4.089879       4.080857       0.589627      -0.735756      -0.333171
      4   2   -1.0000       2.781151      -3.842270      -4.517027      -0.090396       0.310446       0.946283
      5   2   -1.0000       3.171020      -2.000712      -1.786752      -0.030671       0.270465      -0.962241
ITEM: TIMESTEP
2200
ITEM: NUMBER OF ATOMS
5
ITEM: BOX BOUNDS ff ff ff
-5.00000000    5.00000000     
-5.00000000    5.00000000     
-5.00000000    5.00000000     
ITEM: ATOMS id type q x y z mux muy muz
      1   1    1.0000      -1.734603      -1.852750       0.830795       0.546878      -0.765347      -0.339364
      2   2   -1.0000      -1.424114      -2.585402      -0.163932      -0.192881      -0.315054      -0.929267
      3   1    1.0000      -2.735116      -4.089650       4.097297       0.596467      -0.740713      -0.309147
      4   2   -1.0000       2.765021      -3.867327      -4.522502       0.062519       0.312732       0.947782
      5   2   -1.0000       3.186852      -1.979613      -1.799686      -0.144027       0.354288      -0.923979
ITEM: TIMESTEP
2300
ITEM: NUMBER OF ATOMS
5
ITEM: BOX BOUNDS ff ff ff
-5.00000000    5.00000000     
-5.00000000    5.00000000     
-5.00000000    5.00000000     
ITEM: ATOMS id type q x y z mux muy muz
      1   1    1.0000      -1.712469      -1.896820       0.735972       0.382043      -0.815629      -0.434503
      2   2   -1.0000      -1.439198      -2.538577      -0.067697      -0.222665      -0.214932      -0.950907
      3   1    1.0000      -2.741796      -4.089443       4.109234       0.603738      -0.744127      -0.285964
      4   2   -1.0000       2.753112      -3.885797      -4.526673       0.216748       0.307490       0.926537
      5   2   -1.0000       3.198390      -1.964105      -1.808862      -0.252973       0.428351      -0.867479
ITEM: TIMESTEP
2400
ITEM: NUMBER OF ATOMS
5
ITEM: BOX BOUNDS ff ff ff
-5.00000000    5.00000000     
-5.00000000    5.00000000     
-5.00000000    5.00000000     
ITEM: ATOMS id type q x y z mux muy muz
      1   1    1.0000      -1.698965      -1.904012       0.703813       0.209803      -0.802998      -0.557832
      2   2   -1.0000      -1.448154      -2.529642      -0.034624      -0.150383      -0.189117      -0.970371
      3   1    1.0000      -2.745948      -4.089226       4.116779       0.611980      -0.745656      -0.263585
      4   2   -1.0000       2.745346      -3.897758      -4.529499       0.370080       0.294308       0.881149
      5   2   -1.0000       3.205760      -1.954103      -1.814496      -0.356865       0.492285      -0.793916
ITEM: TIMESTEP
2500
ITEM: NUMBER OF ATOMS
5
ITEM: BOX BOUNDS ff ff ff
-5.00000000    5.00000000     
-5.00000000    5.00000000     
-5.00000000    5.00000000     
ITEM: ATOMS id type q x y z mux muy muz
      1   1    1.0000      -1.698076      -1.838597       0.765997       0.078167      -0.738773      -0.669405
      2   2   -1.0000      -1.443011      -2.592838      -0.095554       0.024158      -0.261695      -0.964848
      3   1    1.0000      -2.751217      -4.088784       4.126543       0.620929      -0.745020      -0.243705
      4   2   -1.0000       2.734876      -3.913688      -4.533435       0.508564       0.274607       0.816060
      5   2   -1.0000       3.215468      -1.940834      -1.821578      -0.447882       0.541677      -0.711328
ITEM: TIMESTEP
2600
ITEM: NUMBER OF ATOMS
5
ITEM: BOX BOUNDS ff ff ff
-5.00000000    5.00000000     
-5.00000000    5.00000000     
-5.00000000    5.00000000     
ITEM: ATOMS id type q x y z mux muy muz
      1   1    1.0000      -1.676482      -1.798341       0.807786      -0.004003      -0.660250      -0.751035
      2   2   -1.0000      -1.457074      -2.630427      -0.135720       0.220067      -0.376321      -0.899974
      3   1    1.0000      -2.757560      -4.088085       4.138458       0.629903      -0.742529      -0.227758
      4   2   -1.0000       2.721609      -3.933606      -4.538526       0.620958       0.252016       0.742226
      5   2   -1.0000       3.227548      -1.924282      -1.830026      -0.520691       0.575082      -0.631000
ITEM: TIMESTEP
2700
ITEM: NUMBER OF ATOMS
5
ITEM: BOX BOUNDS ff ff ff
-5.00000000    5.00000000     
-5.00000000    5.00000000     
-5.00000000    5.00000000     
ITEM: ATOMS id type q x y z mux muy muz
      1   1    1.0000      -1.622469      -1.773063       0.839007      -0.055079      -0.582228      -0.811158
      2   2   -1.0000      -1.497440      -2.651020      -0.163951       0.390979      -0.497602      -0.774291
      3   1    1.0000      -2.768752      -4.086640       4.159635       0.639328      -0.738362      -0.214663
      4   2   -1.0000       2.697335      -3.969636      -4.547947       0.714957       0.227363       0.661167
      5   2   -1.0000       3.249367      -1.894382      -1.844770      -0.581805       0.597154      -0.552186
ITEM: TIMESTEP
2800
ITEM: NUMBER OF ATOMS
5
ITEM: BOX BOUNDS ff ff ff
-5.00000000    5.00000000     
-5.00000000    5.00000000     
-5.00000000    5.00000000     
ITEM: ATOMS id type q x y z mux muy muz
      1   1    1.0000      -1.552871      -1.773384       0.845810      -0.094992      -0.506478      -0.857005
      2   2   -1.0000      -1.549995      -2.644978      -0.167028       0.508390      -0.611646      -0.606159
      3   1    1.0000      -2.782485      -4.084701       4.185680       0.649851      -0.732362      -0.203321
      4   2   -1.0000       2.666876      -4.014463      -4.559839       0.797702       0.199833       0.568980
      5   2   -1.0000       3.276515      -1.857215      -1.862650      -0.637009       0.610611      -0.470503
ITEM: TIMESTEP
2900
ITEM: NUMBER OF ATOMS
5
ITEM: BOX BOUNDS ff ff ff
-5.00000000    5.00000000     
-5.00000000    5.00000000     
-5.00000000    5.00000000     
ITEM: ATOMS id type q x y z mux muy muz
      1   1    1.0000      -1.486845      -1.799365       0.823892      -0.142253      -0.429849      -0.891624
      2   2   -1.0000      -1.598483      -2.613234      -0.141331       0.550914      -0.718540      -0.424494
      3   1    1.0000      -2.796401      -4.082592       4.212088       0.662274      -0.724018      -0.192851
      4   2   -1.0000       2.635425      -4.060368      -4.572168       0.872803       0.167635       0.458382
      5   2   -1.0000       3.304344      -1.819182      -1.880508      -0.690161       0.615771      -0.380137
ITEM: TIMESTEP
3000
ITEM: NUMBER OF ATOMS
5
ITEM: BOX BOUNDS ff ff ff
-5.00000000    5.00000000     
-5.00000000    5.00000000     
-5.00000000    5.00000000     
ITEM: ATOMS id type q x y z mux muy muz
      1   1    1.0000      -1.439668      -1.846225       0.773496      -0.213712      -0.348970      -0.912440
      2   2   -1.0000      -1.629851      -2.561293      -0.087620       0.494975      -0.825188      -0.272150
      3   1    1.0000      -2.808751      -4.080587       4.235530       0.677274      -0.712667      -0.182773
      4   2   -1.0000       2.606954      -4.101533      -4.583363       0.937655       0.129186       0.322668
      5   2   -1.0000       3.329356      -1.785104      -1.896071      -0.741966       0.610655      -0.276743
ITEM: TIMESTEP
3100
ITEM: NUMBER OF ATOMS
5
ITEM: BOX BOUNDS ff ff ff
-5.00000000    5.00000000     
-5.00000000    5.00000000     
-5.00000000    5.00000000     
ITEM: ATOMS id type q x y z mux muy muz
      1   1    1.0000      -1.418409      -1.893384       0.712880      -0.315158      -0.269609      -0.909937
      2   2   -1.0000      -1.638846      -2.510291      -0.024532       0.315552      -0.924484      -0.213906
      3   1    1.0000      -2.818161      -4.078928       4.253420       0.694173      -0.698569      -0.173566
      4   2   -1.0000       2.584683      -4.133340      -4.592145       0.981698       0.086982       0.169418
      5   2   -1.0000       3.348772      -1.758798      -1.907649      -0.787596       0.593316      -0.166340
ITEM: TIMESTEP
3200
ITEM: NUMBER OF ATOMS
5
ITEM: BOX BOUNDS ff ff ff
-5.00000000    5.00000000     
-5.00000000    5.00000000     
-5.00000000    5.00000000     
ITEM: ATOMS id type q x y z mux muy muz
      1   1    1.0000      -1.366755      -1.852466       0.735984      -0.416368      -0.221771      -0.881734
      2   2   -1.0000      -1.672261      -2.545615      -0.044090       0.040944      -0.958087      -0.283537
      3   1    1.0000      -2.831924      -4.076308       4.279690       0.709848      -0.684329      -0.166762
      4   2   -1.0000       2.551167      -4.180626      -4.605393       0.998188       0.050727       0.032357
      5   2   -1.0000       3.377811      -1.719727      -1.924217      -0.819792       0.568188      -0.071447
ITEM: TIMESTEP
3300
ITEM: NUMBER OF ATOMS
5
ITEM: BOX BOUNDS ff ff ff
-5.00000000    5.00000000     
-5.00000000    5.00000000     
-5.00000000    5.00000000     
ITEM: ATOMS id type q x y z mux muy muz
      1   1    1.0000      -1.330666      -1.818162       0.751764      -0.483692      -0.225833      -0.845602
      2   2   -1.0000      -1.693999      -2.575577      -0.057129      -0.223222      -0.889762      -0.398114
      3   1    1.0000      -2.842597      -4.074138       4.300194       0.723044      -0.671407      -0.162541
      4   2   -1.0000       2.524373      -4.218008      -4.616012       0.996974       0.024633      -0.073730
      5   2   -1.0000       3.400929      -1.688858      -1.936845      -0.840905       0.541183      -0.000005
ITEM: TIMESTEP
3400
ITEM: NUMBER OF ATOMS
5
ITEM: BOX BOUNDS ff ff ff
-5.00000000    5.00000000     
-5.00000000    5.00000000     
-5.00000000    5.00000000     
ITEM: ATOMS id type q x y z mux muy muz
      1   1    1.0000      -1.293664      -1.815499       0.721512      -0.515583      -0.287425      -0.807193
      2   2   -1.0000      -1.708035      -2.571354      -0.022492      -0.438412      -0.738841      -0.511770
      3   1    1.0000      -2.859463      -4.070508       4.332831       0.735718      -0.658121      -0.159988
      4   2   -1.0000       2.480743      -4.278283      -4.633349       0.986414       0.004901      -0.164203
      5   2   -1.0000       3.438458      -1.639097      -1.956529      -0.857560       0.510914       0.059645
ITEM: TIMESTEP
3500
ITEM: NUMBER OF ATOMS
5
ITEM: BOX BOUNDS ff ff ff
-5.00000000    5.00000000     
-5.00000000    5.00000000     
-5.00000000    5.00000000     
ITEM: ATOMS id type q x y z mux muy muz
      1   1    1.0000      -1.273622      -1.854008       0.661368      -0.506699      -0.418517      -0.753724
      2   2   -1.0000      -1.707766      -2.526807       0.041575      -0.581118      -0.546412      -0.603106
      3   1    1.0000      -2.874217      -4.067181       4.361579       0.748902      -0.643363      -0.158839
      4   2   -1.0000       2.441557      -4.331999      -4.648941       0.969054      -0.010151      -0.246639
      5   2   -1.0000       3.472088      -1.594747      -1.973608      -0.872272       0.475765       0.113088
ITEM: TIMESTEP
3600
ITEM: NUMBER OF ATOMS
5
ITEM: BOX BOUNDS ff ff ff
-5.00000000    5.00000000     
-5.00000000    5.00000000     
-5.00000000    5.00000000     
ITEM: ATOMS id type q x y z mux muy muz
      1   1    1.0000      -1.218642      -1.852581       0.655827      -0.447727      -0.612425      -0.651519
      2   2   -1.0000      -1.745981      -2.523308       0.050413      -0.645347      -0.381251      -0.661948
      3   1    1.0000      -2.886234      -4.064315       4.385191       0.762958      -0.626570      -0.159075
      4   2   -1.0000       2.408621      -4.376753      -4.662046       0.945984      -0.020954      -0.323535
      5   2   -1.0000       3.500275      -1.557785      -1.987413      -0.885720       0.434962       0.162200
ITEM: TIMESTEP
3700
ITEM: NUMBER OF ATOMS
5
ITEM: BOX BOUNDS ff ff ff
-5.00000000    5.00000000     
-5.00000000    5.00000000     
-5.00000000    5.00000000     
ITEM: ATOMS id type q x y z mux muy muz
      1   1    1.0000      -1.157178      -1.844935       0.668686      -0.354625      -0.798050      -0.487194
      2   2   -1.0000      -1.792583      -2.526647       0.040523      -0.664255      -0.280274      -0.692973
      3   1    1.0000      -2.896721      -4.061667       4.405969       0.777723      -0.607722      -0.160687
      4   2   -1.0000       2.378867      -4.416802      -4.673863       0.918212      -0.027496      -0.395135
      5   2   -1.0000       3.525655      -1.524691      -1.999342      -0.897875       0.388515       0.207068
ITEM: TIMESTEP
3800
ITEM: NUMBER OF ATOMS
5
ITEM: BOX BOUNDS ff ff ff
-5.00000000    5.00000000     
-5.00000000    5.00000000     
-5.00000000    5.00000000     
ITEM: ATOMS id type q x y z mux muy muz
      1   1    1.0000      -1.118625      -1.882082       0.646968      -0.259936      -0.923324      -0.282677
      2   2   -1.0000      -1.811433      -2.483846       0.066189      -0.670914      -0.226644      -0.706050
      3   1    1.0000      -2.910434      -4.058054       4.433296       0.794036      -0.585392      -0.163779
      4   2   -1.0000       2.338821      -4.470276      -4.689717       0.883850      -0.030089      -0.466802
      5   2   -1.0000       3.559711      -1.480483      -2.014764      -0.909126       0.332584       0.250755
ITEM: TIMESTEP
3900
ITEM: NUMBER OF ATOMS
5
ITEM: BOX BOUNDS ff ff ff
-5.00000000    5.00000000     
-5.00000000    5.00000000     
-5.00000000    5.00000000     
ITEM: ATOMS id type q x y z mux muy muz