ITEM: TIMESTEP
0
ITEM: NUMBER OF ATOMS
5
ITEM: BOX BOUNDS ff ff ff
-5.00000000    5.00000000     
-5.00000000    5.00000000     
-5.00000000    5.00000000     
ITEM: ATOMS id type q x y z mux muy muz
      1   1    1.0000       3.512368       2.755859      -2.118753      -0.996920       0.071360       0.032528
      2   2   -1.0000      -1.760117       1.788538       0.631618      -0.897486       0.342499      -0.277871
      3   1    1.0000      -3.377416      -1.900464       4.000032      -0.244519       0.698544       0.672493
      4   2   -1.0000       1.881917       4.860102       2.670371       0.501827       0.706337       0.499258
      5   2   -1.0000       4.419616      -2.837779       2.715015       0.881503       0.358528       0.307261
ITEM: TIMESTEP
100
ITEM: NUMBER OF ATOMS
5
ITEM: BOX BOUNDS ff ff ff
-5.00000000    5.00000000     
-5.00000000    5.00000000     
-5.00000000    5.00000000     
ITEM: ATOMS id type q x y z mux muy muz
      1   1    1.0000       3.466801       2.687111      -2.143182      -0.997083       0.067995       0.034682
      2   2   -1.0000      -1.748134       1.763959       0.595176      -0.895563       0.346559      -0.279040
      3   1    1.0000      -3.348438      -1.876676       4.019769      -0.214533       0.594267       0.775128
      4   2   -1.0000       1.899336       4.896156       2.694899       0.494948       0.708139       0.503553
      5   2   -1.0000       4.406803      -2.804294       2.731621       0.899745       0.304868       0.312272
ITEM: TIMESTEP
200
ITEM: NUMBER OF ATOMS
5
ITEM: BOX BOUNDS ff ff ff
-5.00000000    5.00000000     
-5.00000000    5.00000000     
-5.00000000    5.00000000     
ITEM: ATOMS id type q x y z mux muy muz
      1   1    1.0000       3.420984       2.618470      -2.166819      -0.997064       0.062835       0.043762
      2   2   -1.0000      -1.736566       1.739099       0.558544      -0.891831       0.355751      -0.279428
      3   1    1.0000      -3.319153      -1.852732       4.039155      -0.176185       0.480736       0.858983
      4   2   -1.0000       1.917058       4.932448       2.719217       0.484956       0.709452       0.511366
      5   2   -1.0000       4.394044      -2.771028       2.748185       0.918043       0.237829       0.317228
ITEM: TIMESTEP
300
ITEM: NUMBER OF ATOMS
5
ITEM: BOX BOUNDS ff ff ff
-5.00000000    5.00000000     
-5.00000000    5.00000000     
-5.00000000    5.00000000     
ITEM: ATOMS id type q x y z mux muy muz
      1   1    1.0000       3.374919       2.549937      -2.189663      -0.996572       0.055550       0.061312
      2   2   -1.0000      -1.725371       1.713985       0.521709      -0.885897       0.370921      -0.278574
      3   1    1.0000      -3.289576      -1.828644       4.058193      -0.130846       0.361894       0.922991
      4   2   -1.0000       1.935056       4.968964       2.743334       0.471160       0.710023       0.523332
      5   2   -1.0000       4.381339      -2.737986       2.764710       0.934223       0.154801       0.321348
ITEM: TIMESTEP
400
ITEM: NUMBER OF ATOMS
5
ITEM: BOX BOUNDS ff ff ff
-5.00000000    5.00000000     
-5.00000000    5.00000000     
-5.00000000    5.00000000     
ITEM: ATOMS id type q x y z mux muy muz
      1   1    1.0000       3.328609       2.481514      -2.211714      -0.994987       0.045807       0.088899
      2   2   -1.0000      -1.714511       1.688641       0.484658      -0.877209       0.392923      -0.275891
      3   1    1.0000      -3.259721      -1.804417       4.076886      -0.080050       0.241638       0.967059
      4   2   -1.0000       1.953303       4.994315       2.767255       0.452733       0.709458       0.540094
      5   2   -1.0000       4.368686      -2.705172       2.781198       0.944753       0.053504       0.323387
ITEM: TIMESTEP
500
ITEM: NUMBER OF ATOMS
5
ITEM: BOX BOUNDS ff ff ff
-5.00000000    5.00000000     
-5.00000000    5.00000000     
-5.00000000    5.00000000     
ITEM: ATOMS id type q x y z mux muy muz
      1   1    1.0000       3.282044       2.413185      -2.232970      -0.991233       0.033337       0.127848
      2   2   -1.0000      -1.703948       1.663084       0.447370      -0.865035       0.422437      -0.270670
      3   1    1.0000      -3.229592      -1.780052       4.095241      -0.025490       0.123828       0.991976
      4   2   -1.0000       1.971781       4.957753       2.790988       0.428774       0.707179       0.562184
      5   2   -1.0000       4.356083      -2.672587       2.797654       0.944509      -0.067022       0.321576
ITEM: TIMESTEP
600
ITEM: NUMBER OF ATOMS
5
ITEM: BOX BOUNDS ff ff ff
-5.00000000    5.00000000     
-5.00000000    5.00000000     
-5.00000000    5.00000000     
ITEM: ATOMS id type q x y z mux muy muz
      1   1    1.0000       3.235168       2.344870      -2.253444      -0.983705       0.018006       0.178884
      2   2   -1.0000      -1.693643       1.637301       0.409786      -0.848483       0.459750      -0.262118
      3   1    1.0000      -3.199164      -1.755521       4.113282       0.031096       0.012018       0.999444
      4   2   -1.0000       1.990493       4.921513       2.814562       0.398394       0.702381       0.589867
      5   2   -1.0000       4.343514      -2.640203       2.814097       0.927060      -0.205264       0.313730
ITEM: TIMESTEP
700
ITEM: NUMBER OF ATOMS
5
ITEM: BOX BOUNDS ff ff ff
-5.00000000    5.00000000     
-5.00000000    5.00000000     
-5.00000000    5.00000000     
ITEM: ATOMS id type q x y z mux muy muz
      1   1    1.0000       3.187983       2.276576      -2.273122      -0.970343      -0.000080       0.241733
      2   2   -1.0000      -1.683571       1.611307       0.371895      -0.826574       0.504528      -0.249455
      3   1    1.0000      -3.168448      -1.730825       4.131011       0.088099      -0.090930       0.991953
      4   2   -1.0000       2.009422       4.885592       2.837972       0.360858       0.694054       0.622953
      5   2   -1.0000       4.330981      -2.608030       2.830526       0.885691      -0.356342       0.297609
ITEM: TIMESTEP
800
ITEM: NUMBER OF ATOMS
5
ITEM: BOX BOUNDS ff ff ff
-5.00000000    5.00000000     
-5.00000000    5.00000000     
-5.00000000    5.00000000     
ITEM: ATOMS id type q x y z mux muy muz
      1   1    1.0000       3.140487       2.208305      -2.291987      -0.948893      -0.020525       0.314929
      2   2   -1.0000      -1.673703       1.585117       0.333690      -0.798341       0.555715      -0.232017
      3   1    1.0000      -3.137450      -1.705961       4.148427       0.144235      -0.183160       0.972445
      4   2   -1.0000       2.028547       4.849983       2.861213       0.315679       0.681037       0.660708
      5   2   -1.0000       4.318486      -2.576080       2.846938       0.814982      -0.511972       0.271458
ITEM: TIMESTEP
900
ITEM: NUMBER OF ATOMS
5
ITEM: BOX BOUNDS ff ff ff
-5.00000000    5.00000000     
-5.00000000    5.00000000     
-5.00000000    5.00000000     
ITEM: ATOMS id type q x y z mux muy muz
      1   1    1.0000       3.092680       2.140065      -2.310026      -0.917283      -0.042679       0.395943
      2   2   -1.0000      -1.664010       1.558742       0.295169      -0.762940       0.611637      -0.209338
      3   1    1.0000      -3.106181      -1.680926       4.165534       0.198670      -0.263927       0.943861
      4   2   -1.0000       2.047847       4.814678       2.884275       0.262657       0.662092       0.701887
      5   2   -1.0000       4.306031      -2.544361       2.863330       0.712300      -0.661542       0.234502
ITEM: TIMESTEP
1000
ITEM: NUMBER OF ATOMS
5
ITEM: BOX BOUNDS ff ff ff
-5.00000000    5.00000000     
-5.00000000    5.00000000     
-5.00000000    5.00000000     
ITEM: ATOMS id type q x y z mux muy muz
      1   1    1.0000       3.044562       2.071863      -2.327228      -0.873963      -0.065719       0.481529
      2   2   -1.0000      -1.654460       1.532192       0.256334      -0.719722       0.670204      -0.181184
      3   1    1.0000      -3.074649      -1.655715       4.182333       0.251010      -0.333403       0.908755
      4   2   -1.0000       2.067298       4.779665       2.907147       0.201850       0.635980       0.744840
      5   2   -1.0000       4.293615      -2.512881       2.879696       0.578560      -0.793871       0.187183
ITEM: TIMESTEP
1100
ITEM: NUMBER OF ATOMS
5
ITEM: BOX BOUNDS ff ff ff
-5.00000000    5.00000000     
-5.00000000    5.00000000     
-5.00000000    5.00000000     
ITEM: ATOMS id type q x y z mux muy muz
      1   1    1.0000       2.996131       2.003706      -2.343586      -0.818131      -0.088741       0.568144
      2   2   -1.0000      -1.645018       1.505476       0.217196      -0.668284       0.729126      -0.147554
      3   1    1.0000      -3.042861      -1.630323       4.198826       0.301192      -0.392352       0.869105
      4   2   -1.0000       2.086878       4.744932       2.929818       0.133542       0.601512       0.787623
      5   2   -1.0000       4.281239      -2.481643       2.896029       0.418062      -0.898911       0.131088
ITEM: TIMESTEP
1200
ITEM: NUMBER OF ATOMS
5
ITEM: BOX BOUNDS ff ff ff
-5.00000000    5.00000000     
-5.00000000    5.00000000     
-5.00000000    5.00000000     
ITEM: ATOMS id type q x y z mux muy muz
      1   1    1.0000       2.947385       1.935605      -2.359099      -0.749815      -0.110848       0.652297
      2   2   -1.0000      -1.635648       1.478598       0.177769      -0.608505       0.786073      -0.108678
      3   1    1.0000      -3.010828      -1.604745       4.215015       0.349342      -0.441801       0.826300
      4   2   -1.0000       2.106561       4.710459       2.952274       0.058235       0.557599       0.828066
      5   2   -1.0000       4.268898      -2.450649       2.912323       0.237708      -0.968907       0.068664
ITEM: TIMESTEP
1300
ITEM: NUMBER OF ATOMS
5
ITEM: BOX BOUNDS ff ff ff
-5.00000000    5.00000000     
-5.00000000    5.00000000     
-5.00000000    5.00000000     
ITEM: ATOMS id type q x y z mux muy muz
      1   1    1.0000       2.898325       1.867568      -2.373773      -0.669843      -0.131217       0.730816
      2   2   -1.0000      -1.626310       1.451566       0.138076      -0.540577       0.838780      -0.065002
      3   1    1.0000      -2.978560      -1.578977       4.230904       0.395651      -0.482821       0.781245
      4   2   -1.0000       2.126325       4.676227       2.974505      -0.023331       0.503291       0.863802
      5   2   -1.0000       4.256588      -2.419898       2.928571       0.045997      -0.998937       0.002869
ITEM: TIMESTEP
1400
ITEM: NUMBER OF ATOMS
5
ITEM: BOX BOUNDS ff ff ff
-5.00000000    5.00000000     
-5.00000000    5.00000000     
-5.00000000    5.00000000     
ITEM: ATOMS id type q x y z mux muy muz
      1   1    1.0000       2.848949       1.799607      -2.387620      -0.579739      -0.149144       0.801036
      2   2   -1.0000      -1.616962       1.424383       0.098142      -0.465023       0.885132      -0.017182
      3   1    1.0000      -2.946067      -1.553016       4.246496       0.440304      -0.516400       0.734482
      4   2   -1.0000       2.146147       4.642213       2.996501      -0.110127       0.437844       0.892281
      5   2   -1.0000       4.244301      -2.389384       2.944763      -0.147939      -0.986978      -0.063155
ITEM: TIMESTEP
1500
ITEM: NUMBER OF ATOMS
5
ITEM: BOX BOUNDS ff ff ff
-5.00000000    5.00000000     
-5.00000000    5.00000000     
-5.00000000    5.00000000     
ITEM: ATOMS id type q x y z mux muy muz
      1   1    1.0000       2.799258       1.731733      -2.400662      -0.481562      -0.164078       0.860916
      2   2   -1.0000      -1.607565       1.397057       0.058001      -0.382711       0.923244       0.033937
      3   1    1.0000      -2.913360      -1.526861       4.261794       0.483433      -0.543393       0.686307
      4   2   -1.0000       2.166006       4.608392       3.018255      -0.200779       0.360788       0.910780
      5   2   -1.0000       4.232028      -2.359102       2.960895      -0.335120      -0.933665      -0.126349
ITEM: TIMESTEP
1600
ITEM: NUMBER OF ATOMS
5
ITEM: BOX BOUNDS ff ff ff
-5.00000000    5.00000000     
-5.00000000    5.00000000     
-5.00000000    5.00000000     
ITEM: ATOMS id type q x y z mux muy muz
      1   1    1.0000       2.749255       1.663954      -2.412928      -0.377721      -0.175648       0.909106
      2   2   -1.0000      -1.598076       1.369591       0.017687      -0.294844       0.951545       0.087348
      3   1    1.0000      -2.880450      -1.500512       4.276804       0.525100      -0.564512       0.636864
      4   2   -1.0000       2.185882       4.574738       3.039762      -0.293500       0.272021       0.916440
      5   2   -1.0000       4.219757      -2.329041       2.976958      -0.507301      -0.841911      -0.183933
ITEM: TIMESTEP
1700
ITEM: NUMBER OF ATOMS
5
ITEM: BOX BOUNDS ff ff ff
-5.00000000    5.00000000     
-5.00000000    5.00000000     
-5.00000000    5.00000000     
ITEM: ATOMS id type q x y z mux muy muz
      1   1    1.0000       2.698941       1.596281      -2.424454      -0.270783      -0.183663       0.944957
      2   2   -1.0000      -1.588459       1.341993      -0.022760      -0.202915       0.968856       0.141926
      3   1    1.0000      -2.847348      -1.473971       4.291528       0.565295      -0.580340       0.586215
      4   2   -1.0000       2.205758       4.541224       3.061021      -0.386028       0.171917       0.906326
      5   2   -1.0000       4.207475      -2.299192       2.992947      -0.657381      -0.716457      -0.233536
ITEM: TIMESTEP
1800
ITEM: NUMBER OF ATOMS
5
ITEM: BOX BOUNDS ff ff ff
-5.00000000    5.00000000     
-5.00000000    5.00000000     
-5.00000000    5.00000000     
ITEM: ATOMS id type q x y z mux muy muz
      1   1    1.0000       2.648322       1.528720      -2.435283      -0.163291      -0.188109       0.968479
      2   2   -1.0000      -1.578676       1.314270      -0.063301      -0.108653       0.974467       0.196488
      3   1    1.0000      -2.814066      -1.447243       4.305973       0.603934      -0.591348       0.534389
      4   2   -1.0000       2.225621       4.507825       3.082035      -0.475575       0.061456       0.877526
      5   2   -1.0000       4.195167      -2.269542       3.008859      -0.779658      -0.563427      -0.273281
ITEM: TIMESTEP
1900
ITEM: NUMBER OF ATOMS
5
ITEM: BOX BOUNDS ff ff ff
-5.00000000    5.00000000     
-5.00000000    5.00000000     
-5.00000000    5.00000000     
ITEM: ATOMS id type q x y z mux muy muz
      1   1    1.0000       2.597404       1.461276      -2.445463      -0.057613      -0.189134       0.980260
      2   2   -1.0000      -1.568698       1.286429      -0.103897      -0.013924       0.968181       0.249862
      3   1    1.0000      -2.780613      -1.420335       4.320143       0.640878      -0.597919       0.481423
      4   2   -1.0000       2.245456       4.474516       3.102810      -0.558791      -0.057642       0.827303
      5   2   -1.0000       4.182819      -2.240076       3.024690      -0.869987      -0.389897      -0.301832
ITEM: TIMESTEP
2000
ITEM: NUMBER OF ATOMS
5
ITEM: BOX BOUNDS ff ff ff
-5.00000000    5.00000000     
-5.00000000    5.00000000     
-5.00000000    5.00000000     
ITEM: ATOMS id type q x y z mux muy muz
      1   1    1.0000       2.546193       1.393954      -2.455045       0.044169      -0.187016       0.981363
      2   2   -1.0000      -1.558495       1.258481      -0.144508       0.079365       0.950331       0.300952
      3   1    1.0000      -2.746998      -1.393253       4.334043       0.675936      -0.600373       0.427391
      4   2   -1.0000       2.265253       4.441275       3.123355      -0.631761      -0.182765       0.753309
      5   2   -1.0000       4.170415      -2.210780       3.040439      -0.925853      -0.203492      -0.318413
ITEM: TIMESTEP
2100
ITEM: NUMBER OF ATOMS
5
ITEM: BOX BOUNDS ff ff ff
-5.00000000    5.00000000     
-5.00000000    5.00000000     
-5.00000000    5.00000000     
ITEM: ATOMS id type q x y z mux muy muz
      1   1    1.0000       2.494698       1.326754      -2.464083       0.140336      -0.182140       0.973206
      2   2   -1.0000      -1.548048       1.230433      -0.185099       0.169386       0.921758       0.348812
      3   1    1.0000      -2.713230      -1.366010       4.347678       0.708885      -0.598986       0.372423
      4   2   -1.0000       2.285005       4.408083       3.143682      -0.690062      -0.310276       0.653868
      5   2   -1.0000       4.157943      -2.181638       3.056104      -0.946388      -0.012007      -0.322808
ITEM: TIMESTEP
2200
ITEM: NUMBER OF ATOMS
5
ITEM: BOX BOUNDS ff ff ff
-5.00000000    5.00000000     
-5.00000000    5.00000000     
-5.00000000    5.00000000     
ITEM: ATOMS id type q x y z mux muy muz
      1   1    1.0000       2.442928       1.259674      -2.472629       0.229562      -0.174961       0.957439
      2   2   -1.0000      -1.537337       1.202295      -0.225636       0.254490       0.883755       0.392699
      3   1    1.0000      -2.679315      -1.338614       4.361054       0.739489      -0.594009       0.316716
      4   2   -1.0000       2.304704       4.374925       3.163807      -0.728893      -0.435406       0.528334
      5   2   -1.0000       4.145388      -2.152634       3.071686      -0.932332       0.176961      -0.315345
ITEM: TIMESTEP
2300
ITEM: NUMBER OF ATOMS
5
ITEM: BOX BOUNDS ff ff ff
-5.00000000    5.00000000     
-5.00000000    5.00000000     
-5.00000000    5.00000000     
ITEM: ATOMS id type q x y z mux muy muz
      1   1    1.0000       2.390894       1.192711      -2.480735       0.310917      -0.165979       0.935832
      2   2   -1.0000      -1.526350       1.174077      -0.266089       0.333298       0.837968       0.432114
      3   1    1.0000      -2.645260      -1.311079       4.374175       0.767516      -0.585691       0.260547
      4   2   -1.0000       2.324344       4.341790       3.183748      -0.743320      -0.552226       0.377522
      5   2   -1.0000       4.132739      -2.123750       3.087184      -0.885933       0.356371      -0.296854
ITEM: TIMESTEP
2400
ITEM: NUMBER OF ATOMS
5
ITEM: BOX BOUNDS ff ff ff
-5.00000000    5.00000000     
-5.00000000    5.00000000     
-5.00000000    5.00000000     
ITEM: ATOMS id type q x y z mux muy muz
      1   1    1.0000       2.338605       1.125861      -2.488450       0.383839      -0.155705       0.910178
      2   2   -1.0000      -1.515077       1.145786      -0.306432       0.404766       0.786284       0.466821
      3   1    1.0000      -2.611067      -1.283415       4.387046       0.792764      -0.574284       0.204262
      4   2   -1.0000       2.343922       4.308671       3.203521      -0.728654      -0.653740       0.204175
      5   2   -1.0000       4.119985      -2.094970       3.102598      -0.810786       0.520073      -0.268608
ITEM: TIMESTEP
2500
ITEM: NUMBER OF ATOMS
5
ITEM: BOX BOUNDS ff ff ff
-5.00000000    5.00000000     
-5.00000000    5.00000000     
-5.00000000    5.00000000     
ITEM: ATOMS id type q x y z mux muy muz
      1   1    1.0000       2.286070       1.059118      -2.495819       0.448100      -0.144637       0.882206
      2   2   -1.0000      -1.503512       1.117432      -0.346643       0.468216       0.730700       0.496842
      3   1    1.0000      -2.576739      -1.255635       4.399672       0.815078      -0.560057       0.148270
      4   2   -1.0000       2.363434       4.275565       3.223145      -0.680998      -0.732163       0.013406
      5   2   -1.0000       4.107115      -2.066279       3.117928      -0.711586       0.663107      -0.232237
ITEM: TIMESTEP
2600
ITEM: NUMBER OF ATOMS
5
ITEM: BOX BOUNDS ff ff ff
-5.00000000    5.00000000     
-5.00000000    5.00000000     
-5.00000000    5.00000000     
ITEM: ATOMS id type q x y z mux muy muz
      1   1    1.0000       2.233299       0.992477      -2.502879       0.503746      -0.133241       0.853514
      2   2   -1.0000      -1.491652       1.089021      -0.386702       0.523336       0.673192       0.522430
      3   1    1.0000      -2.542277      -1.227748       4.412055       0.834369      -0.543300       0.093024
      4   2   -1.0000       2.382876       4.242471       3.242638      -0.597922      -0.779441      -0.186977
      5   2   -1.0000       4.094121      -2.037662       3.133170      -0.593810       0.781944      -0.189615
ITEM: TIMESTEP
2700
ITEM: NUMBER OF ATOMS
5
ITEM: BOX BOUNDS ff ff ff
-5.00000000    5.00000000     
-5.00000000    5.00000000     
-5.00000000    5.00000000     
ITEM: ATOMS id type q x y z mux muy muz
      1   1    1.0000       2.180300       0.925934      -2.509665       0.551044      -0.121924       0.825521
      2   2   -1.0000      -1.479495       1.060560      -0.426594       0.570150       0.615599       0.544029
      3   1    1.0000      -2.507677      -1.199764       4.424200       0.850631      -0.524315       0.038993
      4   2   -1.0000       2.402245       4.209392       3.262017      -0.479245      -0.788044      -0.386407
      5   2   -1.0000       4.080994      -2.009107       3.148323      -0.463333       0.874615      -0.142730
ITEM: TIMESTEP
2800
ITEM: NUMBER OF ATOMS
5
ITEM: BOX BOUNDS ff ff ff
-5.00000000    5.00000000     
-5.00000000    5.00000000     
-5.00000000    5.00000000     
ITEM: ATOMS id type q x y z mux muy muz
      1   1    1.0000       2.127079       0.859486      -2.516200       0.590417      -0.111025       0.799425
      2   2   -1.0000      -1.467040       1.032055      -0.466306       0.608962       0.559531       0.562219
      3   1    1.0000      -2.472936      -1.171688       4.436109       0.863943      -0.503413      -0.013367
      4   2   -1.0000       2.421538       4.176330       3.281297      -0.327779      -0.752001      -0.571888
      5   2   -1.0000       4.067727      -1.980605       3.163383      -0.326015       0.940725      -0.093546
ITEM: TIMESTEP
2900
ITEM: NUMBER OF ATOMS
5
ITEM: BOX BOUNDS ff ff ff
-5.00000000    5.00000000     
-5.00000000    5.00000000     
-5.00000000    5.00000000     
ITEM: ATOMS id type q x y z mux muy muz
      1   1    1.0000       2.073640       0.793132      -2.522503       0.622390      -0.100799       0.776190
      2   2   -1.0000      -1.454289       1.003512      -0.505828       0.640290       0.506305       0.577655
      3   1    1.0000      -2.438046      -1.143523       4.447782       0.874463      -0.480900      -0.063644
      4   2   -1.0000       2.440751       4.143289       3.300489      -0.149879      -0.668079      -0.728839
      5   2   -1.0000       4.054312      -1.952151       3.178343      -0.187307       0.981321      -0.043872
ITEM: TIMESTEP
3000
ITEM: NUMBER OF ATOMS
5
ITEM: BOX BOUNDS ff ff ff
-5.00000000    5.00000000     
-5.00000000    5.00000000     
-5.00000000    5.00000000     
ITEM: ATOMS id type q x y z mux muy muz
      1   1    1.0000       2.019985       0.726875      -2.528585       0.647531      -0.091412       0.756536
      2   2   -1.0000      -1.441242       0.974934      -0.545153       0.664782       0.456915       0.591011
      3   1    1.0000      -2.402997      -1.115269       4.459220       0.882419      -0.457062      -0.111496
      4   2   -1.0000       2.459878       4.110272       3.319603       0.044390      -0.536910      -0.842471
      5   2   -1.0000       4.040743      -1.923742       3.193198      -0.051916       0.998640       0.004740
ITEM: TIMESTEP
3100
ITEM: NUMBER OF ATOMS
5
ITEM: BOX BOUNDS ff ff ff
-5.00000000    5.00000000     
-5.00000000    5.00000000     
-5.00000000    5.00000000     
ITEM: ATOMS id type q x y z mux muy muz
      1   1    1.0000       1.966117       0.660722      -2.534449       0.666407      -0.082941       0.740961
      2   2   -1.0000      -1.427900       0.946327      -0.584277       0.683151       0.412041       0.602933
      3   1    1.0000      -2.367774      -1.086923       4.470423       0.888086      -0.432156      -0.156666
      4   2   -1.0000       2.478913       4.077283       3.338647       0.241646      -0.363807      -0.899584
      5   2   -1.0000       4.027012      -1.895382       3.207939       0.076407       0.995768       0.051066
ITEM: TIMESTEP
3200
ITEM: NUMBER OF ATOMS
5
ITEM: BOX BOUNDS ff ff ff
-5.00000000    5.00000000     
-5.00000000    5.00000000     
-5.00000000    5.00000000     
ITEM: ATOMS id type q x y z mux muy muz
      1   1    1.0000       1.912032       0.594682      -2.540093       0.679545      -0.075381       0.729751
      2   2   -1.0000      -1.414266       0.917693      -0.623195       0.696108       0.372075       0.613998
      3   1    1.0000      -2.332361      -1.058481       4.481388       0.891761      -0.406404      -0.198992
      4   2   -1.0000       2.497848       4.044324       3.357624       0.426193      -0.159041      -0.890542
      5   2   -1.0000       4.013115      -1.867081       3.222559       0.194966       0.976274       0.094224
ITEM: TIMESTEP
3300
ITEM: NUMBER OF ATOMS
5
ITEM: BOX BOUNDS ff ff ff
-5.00000000    5.00000000     
-5.00000000    5.00000000     
-5.00000000    5.00000000     
ITEM: ATOMS id type q x y z mux muy muz
      1   1    1.0000       1.857728       0.528769      -2.545508       0.687407      -0.068651       0.723020
      2   2   -1.0000      -1.400337       0.889035      -0.661905       0.704319       0.337173       0.624699
      3   1    1.0000      -2.296739      -1.029934       4.492110       0.893740      -0.379992      -0.238400
      4   2   -1.0000       2.516673       4.011397       3.376535       0.581584       0.062608      -0.811074
      5   2   -1.0000       3.999043      -1.838851       3.237050       0.302090       0.943862       0.133666
ITEM: TIMESTEP
3400
ITEM: NUMBER OF ATOMS
5
ITEM: BOX BOUNDS ff ff ff
-5.00000000    5.00000000     
-5.00000000    5.00000000     
-5.00000000    5.00000000     
ITEM: ATOMS id type q x y z mux muy muz
      1   1    1.0000       1.803199       0.462996      -2.550684       0.690374      -0.062612       0.720739
      2   2   -1.0000      -1.386113       0.860354      -0.700405       0.708368       0.307313       0.635432
      3   1    1.0000      -2.260884      -1.001276       4.502586       0.894298      -0.353078      -0.274894
      4   2   -1.0000       2.535376       3.978504       3.395380       0.692532       0.283035      -0.663544
      5   2   -1.0000       3.984790      -1.810713       3.251406       0.397012       0.902097       0.169121
ITEM: TIMESTEP
3500
ITEM: NUMBER OF ATOMS
5
ITEM: BOX BOUNDS ff ff ff
-5.00000000    5.00000000     
-5.00000000    5.00000000     
-5.00000000    5.00000000     
ITEM: ATOMS id type q x y z mux muy muz
      1   1    1.0000       1.748437       0.397383      -2.555607       0.688737      -0.057079       0.722761
      2   2   -1.0000      -1.371589       0.831649      -0.738695       0.708743       0.282348       0.646501
      3   1    1.0000      -2.224771      -0.972500       4.512808       0.893676      -0.325805      -0.308534
      4   2   -1.0000       2.553944       3.945650       3.414155       0.746888       0.482624      -0.457419
      5   2   -1.0000       3.970347      -1.782688       3.265622       0.479707       0.854204       0.200541
ITEM: TIMESTEP
3600
ITEM: NUMBER OF ATOMS
5
ITEM: BOX BOUNDS ff ff ff
-5.00000000    5.00000000     
-5.00000000    5.00000000     
-5.00000000    5.00000000     
ITEM: ATOMS id type q x y z mux muy muz
      1   1    1.0000       1.693432       0.331947      -2.560267       0.682704      -0.051839       0.728854
      2   2   -1.0000      -1.356755       0.802919      -0.776772       0.705830       0.262058       0.658126
      3   1    1.0000      -2.188377      -0.943600       4.522772       0.892076      -0.298314      -0.339424
      4   2   -1.0000       2.572364       3.912840       3.432855       0.737353       0.642433      -0.208783
      5   2   -1.0000       3.955704      -1.754801       3.279696       0.550693       0.802956       0.228031
ITEM: TIMESTEP
3700
ITEM: NUMBER OF ATOMS
5
ITEM: BOX BOUNDS ff ff ff
-5.00000000    5.00000000     
-5.00000000    5.00000000     
-5.00000000    5.00000000     
ITEM: ATOMS id type q x y z mux muy muz
      1   1    1.0000       1.638172       0.266707      -2.564656       0.672401      -0.046666       0.738714
      2   2   -1.0000      -1.341598       0.774163      -0.814632       0.699909       0.246190       0.670461
      3   1    1.0000      -2.151676      -0.914576       4.532469       0.889662      -0.270755      -0.367687
      4   2   -1.0000       2.590624       3.880084       3.451474       0.662659       0.746429       0.061056
      5   2   -1.0000       3.940846      -1.727080       3.293628       0.610863       0.750630       0.251795
ITEM: TIMESTEP
3800
ITEM: NUMBER OF ATOMS
5
ITEM: BOX BOUNDS ff ff ff
-5.00000000    5.00000000     
-5.00000000    5.00000000     
-5.00000000    5.00000000     
ITEM: ATOMS id type q x y z mux muy muz
      1   1    1.0000       1.582642       0.201683      -2.568771       0.657886      -0.041334       0.751983
      2   2   -1.0000      -1.326097       0.745377      -0.852268       0.691157       0.234482       0.683608
      3   1    1.0000      -2.114646      -0.885432       4.541894       0.886563      -0.243301      -0.393460
      4   2   -1.0000       2.608712       3.847393       3.470007       0.528033       0.783452       0.327696
      5   2   -1.0000       3.925757      -1.699550       3.307421       0.661330       0.699007       0.272089
ITEM: TIMESTEP
3900
ITEM: NUMBER OF ATOMS
5
ITEM: BOX BOUNDS ff ff ff
-5.00000000    5.00000000     
-5.00000000    5.00000000     
-5.00000000    5.00000000     
ITEM: ATOMS id type q x y z mux muy muz