ITEM: TIMESTEP
0
ITEM: NUMBER OF ATOMS
5
ITEM: BOX BOUNDS ff ff ff
-5.00000000    5.00000000     
-5.00000000    5.00000000     
-5.00000000    5.00000000     
ITEM: ATOMS id type q x y z mux muy muz
      1   1    1.0000       0.292872       4.489431      -4.267657       0.468097       0.297503      -0.832092
      2   2   -1.0000       0.998638       0.264648       0.162617       0.835653      -0.055341      -0.546463
      3   1    1.0000       3.730880      -2.944264      -4.592144       0.493762       0.760993      -0.420820
      4   2   -1.0000       1.722664      -1.548213      -4.824549       0.410538       0.884442       0.221857
      5   2   -1.0000      -2.485770      -1.906989       1.168394       0.545405       0.487563       0.681774
ITEM: TIMESTEP
100
ITEM: NUMBER OF ATOMS
5
ITEM: BOX BOUNDS ff ff ff
-5.00000000    5.00000000     
-5.00000000    5.00000000     
-5.00000000    5.00000000     
ITEM: ATOMS id type q x y z mux muy muz
      1   1    1.0000       0.324507       4.492297      -4.264751       0.599784       0.310938      -0.737276
      2   2   -1.0000       0.994670       0.231222       0.191199       0.850877       0.038456      -0.523955
      3   1    1.0000       3.658521      -2.909367      -4.579681       0.451574       0.774170      -0.443555
      4   2   -1.0000       1.718598      -1.526769      -4.869550       0.412922       0.907598       0.075909
      5   2   -1.0000      -2.437013      -1.932770       1.169444       0.574112       0.544204       0.611750
ITEM: TIMESTEP
200
ITEM: NUMBER OF ATOMS
5
ITEM: BOX BOUNDS ff ff ff
-5.00000000    5.00000000     
-5.00000000    5.00000000     
-5.00000000    5.00000000     
ITEM: ATOMS id type q x y z mux muy muz
      1   1    1.0000       0.355737       4.494935      -4.261672       0.706463       0.314215      -0.634176
      2   2   -1.0000       0.991231       0.198580       0.219566       0.857148       0.117110      -0.501581
      3   1    1.0000       3.584469      -2.875315      -4.566989       0.393715       0.792574      -0.465635
      4   2   -1.0000       1.716921      -1.504988      -4.914690       0.385038       0.919492      -0.079245
      5   2   -1.0000      -2.389075      -1.958599       1.170447       0.598871       0.592612       0.538669
ITEM: TIMESTEP
300
ITEM: NUMBER OF ATOMS
5
ITEM: BOX BOUNDS ff ff ff
-5.00000000    5.00000000     
-5.00000000    5.00000000     
-5.00000000    5.00000000     
ITEM: ATOMS id type q x y z mux muy muz
      1   1    1.0000       0.386474       4.497347      -4.258432       0.788052       0.309679      -0.532046
      2   2   -1.0000       0.988311       0.166806       0.247650       0.857780       0.180050      -0.481452
      3   1    1.0000       3.508524      -2.842165      -4.553996       0.320869       0.813653      -0.484781
      4   2   -1.0000       1.718039      -1.482967      -4.959964       0.321865       0.916183      -0.238771
      5   2   -1.0000      -2.342065      -1.984407       1.171403       0.619319       0.631620       0.466368
ITEM: TIMESTEP
400
ITEM: NUMBER OF ATOMS
5
ITEM: BOX BOUNDS ff ff ff
-5.00000000    5.00000000     
-5.00000000    5.00000000     
-5.00000000    5.00000000     
ITEM: ATOMS id type q x y z mux muy muz
      1   1    1.0000       0.416603       4.499529      -4.255042       0.847270       0.300057      -0.438291
      2   2   -1.0000       0.985898       0.136012       0.275343       0.855528       0.227973      -0.464865
      3   1    1.0000       3.430398      -2.809872      -4.540651       0.234418       0.834535      -0.498598
      4   2   -1.0000       1.722528      -1.460967      -4.994711       0.219775       0.892172      -0.394624
      5   2   -1.0000      -2.296144      -2.010089       1.172311       0.635672       0.661148       0.398503
ITEM: TIMESTEP
500
ITEM: NUMBER OF ATOMS
5
ITEM: BOX BOUNDS ff ff ff
-5.00000000    5.00000000     
-5.00000000    5.00000000     
-5.00000000    5.00000000     
ITEM: ATOMS id type q x y z mux muy muz
      1   1    1.0000       0.445982       4.501476      -4.251521       0.888532       0.287844      -0.357291
      2   2   -1.0000       0.983975       0.106338       0.302509       0.852346       0.262580      -0.452282
      3   1    1.0000       3.349687      -2.778198      -4.526916       0.136297       0.852484      -0.504672
      4   2   -1.0000       1.731152      -1.439487      -4.950531       0.078555       0.841366      -0.534726
      5   2   -1.0000      -2.251513      -2.035515       1.173168       0.648589       0.682115       0.337714
ITEM: TIMESTEP
600
ITEM: NUMBER OF ATOMS
5
ITEM: BOX BOUNDS ff ff ff
-5.00000000    5.00000000     
-5.00000000    5.00000000     
-5.00000000    5.00000000     
ITEM: ATOMS id type q x y z mux muy muz
      1   1    1.0000       0.474537       4.503185      -4.247878       0.916637       0.274852      -0.290229
      2   2   -1.0000       0.982516       0.077854       0.329067       0.849365       0.286150      -0.443506
      3   1    1.0000       3.265635      -2.746535      -4.512625       0.028635       0.865389      -0.500283
      4   2   -1.0000       1.744876      -1.419283      -4.908455      -0.096815       0.759416      -0.643362
      5   2   -1.0000      -2.208281      -2.060608       1.173970       0.658934       0.696063       0.285135
ITEM: TIMESTEP
700
ITEM: NUMBER OF ATOMS
5
ITEM: BOX BOUNDS ff ff ff
-5.00000000    5.00000000     
-5.00000000    5.00000000     
-5.00000000    5.00000000     
ITEM: ATOMS id type q x y z mux muy muz
      1   1    1.0000       0.502007       4.504643      -4.244152       0.935737       0.262106      -0.236003
      2   2   -1.0000       0.981500       0.050815       0.354755       0.847093       0.301076      -0.437935
      3   1    1.0000       3.177916      -2.714012      -4.497709      -0.085929       0.871430      -0.482934
      4   2   -1.0000       1.764708      -1.401718      -4.869085      -0.294912       0.645941      -0.704122
      5   2   -1.0000      -2.166848      -2.085114       1.174707       0.667506       0.704662       0.240599
ITEM: TIMESTEP
800
ITEM: NUMBER OF ATOMS
5
ITEM: BOX BOUNDS ff ff ff
-5.00000000    5.00000000     
-5.00000000    5.00000000     
-5.00000000    5.00000000     
ITEM: ATOMS id type q x y z mux muy muz
      1   1    1.0000       0.528054       4.505834      -4.240399       0.948943       0.250002      -0.192373
      2   2   -1.0000       0.980900       0.025539       0.379225       0.845658       0.309513      -0.434815
      3   1    1.0000       3.086515      -2.679246      -4.482249      -0.203714       0.869126      -0.450690
      4   2   -1.0000       1.791536      -1.388808      -4.833014      -0.498292       0.506634      -0.703581
      5   2   -1.0000      -2.127721      -2.108705       1.175363       0.674920       0.709384       0.203122
ITEM: TIMESTEP
900
ITEM: NUMBER OF ATOMS
5
ITEM: BOX BOUNDS ff ff ff
-5.00000000    5.00000000     
-5.00000000    5.00000000     
-5.00000000    5.00000000     
ITEM: ATOMS id type q x y z mux muy muz
      1   1    1.0000       0.552278       4.506744      -4.236693       0.958396       0.238517      -0.156802
      2   2   -1.0000       0.980686       0.002395       0.402064       0.845017       0.313211      -0.433412
      3   1    1.0000       2.992004      -2.640267      -4.466608      -0.319540       0.857763      -0.402662
      4   2   -1.0000       1.825817      -1.383274      -4.800671      -0.686291       0.354337      -0.635177
      5   2   -1.0000      -2.091503      -2.130984       1.175920       0.681608       0.711370       0.171357
ITEM: TIMESTEP
1000
ITEM: NUMBER OF ATOMS
5
ITEM: BOX BOUNDS ff ff ff
-5.00000000    5.00000000     
-5.00000000    5.00000000     
-5.00000000    5.00000000     
ITEM: ATOMS id type q x y z mux muy muz
      1   1    1.0000       0.574247       4.507367      -4.233125       0.965496       0.227396      -0.126921
      2   2   -1.0000       0.980822      -0.018238       0.422816       0.845082       0.313476      -0.433092
      3   1    1.0000       2.895858      -2.594565      -4.451605      -0.426622       0.838198      -0.339732
      4   2   -1.0000       1.867189      -1.388442      -4.772086      -0.839591       0.208533      -0.501598
      5   2   -1.0000      -2.058832      -2.151508       1.176361       0.687872       0.711427       0.143889
ITEM: TIMESTEP
1100
ITEM: NUMBER OF ATOMS
5
ITEM: BOX BOUNDS ff ff ff
-5.00000000    5.00000000     
-5.00000000    5.00000000     
-5.00000000    5.00000000     
ITEM: ATOMS id type q x y z mux muy muz
      1   1    1.0000       0.593539       4.507708      -4.229799       0.971129       0.216260      -0.100700
      2   2   -1.0000       0.981259      -0.036006       0.441036       0.845800       0.311196      -0.433336
      3   1    1.0000       2.800706      -2.539247      -4.438762      -0.516809       0.813910      -0.265441
      4   2   -1.0000       1.914103      -1.408011      -4.746557      -0.944560       0.094265      -0.314516
      5   2   -1.0000      -2.030323      -2.169830       1.176670       0.693938       0.710067       0.119397
ITEM: TIMESTEP
1200
ITEM: NUMBER OF ATOMS
5
ITEM: BOX BOUNDS ff ff ff
-5.00000000    5.00000000     
-5.00000000    5.00000000     
-5.00000000    5.00000000     
ITEM: ATOMS id type q x y z mux muy muz
      1   1    1.0000       0.609772       4.507793      -4.226822       0.975826       0.204712      -0.076531
      2   2   -1.0000       0.981937      -0.050618       0.456318       0.847173       0.306894      -0.433721
      3   1    1.0000       2.710453      -2.471216      -4.430755      -0.580624       0.792270      -0.187573
      4   2   -1.0000       1.963633      -1.445823      -4.722151      -0.994685       0.043546      -0.093301
      5   2   -1.0000      -2.006513      -2.185523       1.176844       0.699978       0.707575       0.096787
ITEM: TIMESTEP
1300
ITEM: NUMBER OF ATOMS
5
ITEM: BOX BOUNDS ff ff ff
-5.00000000    5.00000000     
-5.00000000    5.00000000     
-5.00000000    5.00000000     
ITEM: ATOMS id type q x y z mux muy muz
      1   1    1.0000       0.622579       4.507671      -4.224309       0.979817       0.192591      -0.053551
      2   2   -1.0000       0.982779      -0.061818       0.468288       0.849245       0.300890      -0.433876
      3   1    1.0000       2.629974      -2.386923      -4.432535      -0.606313       0.785733      -0.122510
      4   2   -1.0000       2.011848      -1.506156      -4.694637      -0.986331       0.102387       0.129107
      5   2   -1.0000      -1.987897      -2.198161       1.176890       0.706044       0.704125       0.075559
ITEM: TIMESTEP
1400
ITEM: NUMBER OF ATOMS
5
ITEM: BOX BOUNDS ff ff ff
-5.00000000    5.00000000     
-5.00000000    5.00000000     
-5.00000000    5.00000000     
ITEM: ATOMS id type q x y z mux muy muz
      1   1    1.0000       0.631517       4.507422      -4.222407       0.982975       0.180783      -0.032823
      2   2   -1.0000       0.983666      -0.069323       0.476528       0.851912       0.293815      -0.433496
      3   1    1.0000       2.592376      -2.323303      -4.441415      -0.581248       0.807066      -0.103901
      4   2   -1.0000       2.026781      -1.552970      -4.667610      -0.905467       0.323897       0.274261
      5   2   -1.0000      -1.975056      -2.207213       1.176834       0.711755       0.700119       0.056905
ITEM: TIMESTEP
1500
ITEM: NUMBER OF ATOMS
5
ITEM: BOX BOUNDS ff ff ff
-5.00000000    5.00000000     
-5.00000000    5.00000000     
-5.00000000    5.00000000     
ITEM: ATOMS id type q x y z mux muy muz
      1   1    1.0000       0.650801       4.506616      -4.218024       0.985018       0.171559      -0.017546
      2   2   -1.0000       0.986153      -0.084933       0.494080       0.854622       0.287150      -0.432626
      3   1    1.0000       2.664906      -2.340579      -4.440141      -0.533226       0.833684      -0.143666
      4   2   -1.0000       1.905043      -1.499315      -4.629340      -0.747613       0.611936       0.258087
      5   2   -1.0000      -1.947619      -2.227175       1.176556       0.716200       0.696524       0.043712
ITEM: TIMESTEP
1600
ITEM: NUMBER OF ATOMS
5
ITEM: BOX BOUNDS ff ff ff
-5.00000000    5.00000000     
-5.00000000    5.00000000     
-5.00000000    5.00000000     
ITEM: ATOMS id type q x y z mux muy muz
      1   1    1.0000       0.665990       4.505845      -4.214405       0.986418       0.164151      -0.005811
      2   2   -1.0000       0.988445      -0.096893       0.507800       0.857356       0.280563      -0.431538
      3   1    1.0000       2.696450      -2.326026      -4.454240      -0.513379       0.836208      -0.192869
      4   2   -1.0000       1.834539      -1.485160      -4.583876      -0.558236       0.816161       0.149177
      5   2   -1.0000      -1.926142      -2.243153       1.176266       0.719866       0.693275       0.034097
ITEM: TIMESTEP
1700
ITEM: NUMBER OF ATOMS
5
ITEM: BOX BOUNDS ff ff ff
-5.00000000    5.00000000     
-5.00000000    5.00000000     
-5.00000000    5.00000000     
ITEM: ATOMS id type q x y z mux muy muz
      1   1    1.0000       0.686828       4.504621      -4.209207       0.987643       0.156612       0.005873
      2   2   -1.0000       0.992036      -0.112845       0.526524       0.860628       0.272395      -0.430255
      3   1    1.0000       2.687716      -2.268225      -4.484278      -0.539353       0.810041      -0.230069
      4   2   -1.0000       1.789549      -1.503512      -4.510542      -0.369233       0.929322      -0.005204
      5   2   -1.0000      -1.896846      -2.265426       1.175795       0.723740       0.689620       0.025017
ITEM: TIMESTEP
1800
ITEM: NUMBER OF ATOMS
5
ITEM: BOX BOUNDS ff ff ff
-5.00000000    5.00000000     
-5.00000000    5.00000000     
-5.00000000    5.00000000     
ITEM: ATOMS id type q x y z mux muy muz
      1   1    1.0000       0.706769       4.503325      -4.204023       0.988803       0.147984       0.019242
      2   2   -1.0000       0.995837      -0.127726       0.544395       0.864749       0.261377      -0.428826
      3   1    1.0000       2.630196      -2.190659      -4.509917      -0.629407       0.742606      -0.228874
      4   2   -1.0000       1.795428      -1.543283      -4.443284      -0.230092       0.958266      -0.169661
      5   2   -1.0000      -1.868946      -2.287043       1.175299       0.728297       0.685095       0.015108
ITEM: TIMESTEP
1900
ITEM: NUMBER OF ATOMS
5
ITEM: BOX BOUNDS ff ff ff
-5.00000000    5.00000000     
-5.00000000    5.00000000     
-5.00000000    5.00000000     
ITEM: ATOMS id type q x y z mux muy muz
      1   1    1.0000       0.723106       4.502152      -4.199569       0.989801       0.138205       0.034556
      2   2   -1.0000       0.999281      -0.139554       0.559008       0.869653       0.247152      -0.427340
      3   1    1.0000       2.589904      -2.159309      -4.520812      -0.779870       0.608756      -0.145668
      4   2   -1.0000       1.793213      -1.543638      -4.398143      -0.232305       0.929725      -0.285736
      5   2   -1.0000      -1.846221      -2.305037       1.174857       0.733500       0.679675       0.004286
ITEM: TIMESTEP
2000
ITEM: NUMBER OF ATOMS
5
ITEM: BOX BOUNDS ff ff ff
-5.00000000    5.00000000     
-5.00000000    5.00000000     
-5.00000000    5.00000000     
ITEM: ATOMS id type q x y z mux muy muz
      1   1    1.0000       0.744957       4.500434      -4.193343       0.990408       0.129403       0.048437
      2   2   -1.0000       1.004300      -0.154904       0.578509       0.874152       0.232968      -0.426128
      3   1    1.0000       2.595440      -2.194780      -4.521479      -0.895995       0.444011       0.006920
      4   2   -1.0000       1.730597      -1.466674      -4.351507      -0.393894       0.873818      -0.285113
      5   2   -1.0000      -1.816010      -2.329461       1.174219       0.738075       0.674701      -0.004929
ITEM: TIMESTEP
2100
ITEM: NUMBER OF ATOMS
5
ITEM: BOX BOUNDS ff ff ff
-5.00000000    5.00000000     
-5.00000000    5.00000000     
-5.00000000    5.00000000     
ITEM: ATOMS id type q x y z mux muy muz
      1   1    1.0000       0.769803       4.498323      -4.186024       0.990713       0.122094       0.059833
      2   2   -1.0000       1.010374      -0.171939       0.600626       0.877872       0.220320      -0.425207
      3   1    1.0000       2.559402      -2.208014      -4.500080      -0.933335       0.321888       0.158977
      4   2   -1.0000       1.701539      -1.406205      -4.320487      -0.589574       0.785260      -0.189127
      5   2   -1.0000      -1.781835      -2.357551       1.173442       0.741596       0.670743      -0.011807
ITEM: TIMESTEP
2200
ITEM: NUMBER OF ATOMS
5
ITEM: BOX BOUNDS ff ff ff
-5.00000000    5.00000000     
-5.00000000    5.00000000     
-5.00000000    5.00000000     
ITEM: ATOMS id type q x y z mux muy muz
      1   1    1.0000       0.800461       4.495536      -4.176756       0.990858       0.115128       0.070324
      2   2   -1.0000       1.018246      -0.192533       0.627819       0.881363       0.207867      -0.424254
      3   1    1.0000       2.472847      -2.179125      -4.456424      -0.917654       0.271554       0.290118
      4   2   -1.0000       1.707591      -1.376739      -4.299294      -0.748674       0.662208      -0.031092
      5   2   -1.0000      -1.739861      -2.392525       1.172414       0.744512       0.667385      -0.017304
ITEM: TIMESTEP
2300
ITEM: NUMBER OF ATOMS
5
ITEM: BOX BOUNDS ff ff ff
-5.00000000    5.00000000     
-5.00000000    5.00000000     
-5.00000000    5.00000000     
ITEM: ATOMS id type q x y z mux muy muz
      1   1    1.0000       0.825603       4.493089      -4.168978       0.990880       0.107650       0.081039
      2   2   -1.0000       1.025011      -0.209085       0.649998       0.885069       0.194490      -0.422879
      3   1    1.0000       2.386274      -2.120580      -4.415894      -0.863342       0.324394       0.386535
      4   2   -1.0000       1.727995      -1.387364      -4.286467      -0.831797       0.532336       0.157264
      5   2   -1.0000      -1.705600      -2.421446       1.171499       0.747083       0.664369      -0.021926
ITEM: TIMESTEP
2400
ITEM: NUMBER OF ATOMS
5
ITEM: BOX BOUNDS ff ff ff
-5.00000000    5.00000000     
-5.00000000    5.00000000     
-5.00000000    5.00000000     
ITEM: ATOMS id type q x y z mux muy muz
      1   1    1.0000       0.855580       4.489972      -4.159507       0.990758       0.099299       0.092399
      2   2   -1.0000       1.033457      -0.228424       0.676254       0.889206       0.179731      -0.420725
      3   1    1.0000       2.377794      -2.117896      -4.393836      -0.762894       0.497853       0.412474
      4   2   -1.0000       1.657393      -1.332840      -4.244655      -0.826731       0.456533       0.328777
      5   2   -1.0000      -1.664941      -2.456198       1.170310       0.749352       0.661671      -0.025741
ITEM: TIMESTEP
2500
ITEM: NUMBER OF ATOMS
5
ITEM: BOX BOUNDS ff ff ff
-5.00000000    5.00000000     
-5.00000000    5.00000000     
-5.00000000    5.00000000     
ITEM: ATOMS id type q x y z mux muy muz
      1   1    1.0000       0.879570       4.487314      -4.151772       0.990487       0.090753       0.103443
      2   2   -1.0000       1.040543      -0.243581       0.697106       0.893418       0.164822      -0.417897
      3   1    1.0000       2.378300      -2.104346      -4.387469      -0.626779       0.694173       0.353936
      4   2   -1.0000       1.593412      -1.300537      -4.199666      -0.773161       0.455694       0.441096
      5   2   -1.0000      -1.632542      -2.484235       1.169280       0.751081       0.659596      -0.028455
ITEM: TIMESTEP
2600
ITEM: NUMBER OF ATOMS
5
ITEM: BOX BOUNDS ff ff ff
-5.00000000    5.00000000     
-5.00000000    5.00000000     
-5.00000000    5.00000000     
ITEM: ATOMS id type q x y z mux muy muz
      1   1    1.0000       0.910012       4.483740      -4.141757       0.990048       0.081927       0.114421
      2   2   -1.0000       1.049964      -0.262410       0.723376       0.897745       0.149364      -0.414421
      3   1    1.0000       2.330827      -2.029929      -4.379712      -0.487484       0.839954       0.238405
      4   2   -1.0000       1.560075      -1.316681      -4.141937      -0.707625       0.506398       0.492776
      5   2   -1.0000      -1.591595      -2.520106       1.167885       0.752318       0.658104      -0.030281
ITEM: TIMESTEP
2700
ITEM: NUMBER OF ATOMS
5
ITEM: BOX BOUNDS ff ff ff
-5.00000000    5.00000000     
-5.00000000    5.00000000     
-5.00000000    5.00000000     
ITEM: ATOMS id type q x y z mux muy muz
      1   1    1.0000       0.934138       4.480768      -4.133656       0.989365       0.072368       0.126176
      2   2   -1.0000       1.057775      -0.277000       0.744055       0.902431       0.132020      -0.410108
      3   1    1.0000       2.277487      -1.962959      -4.378511      -0.395975       0.912307       0.104397
      4   2   -1.0000       1.549153      -1.337424      -4.090990      -0.652338       0.582062       0.485448
      5   2   -1.0000      -1.559270      -2.548771       1.166720       0.753166       0.657077      -0.031479
ITEM: TIMESTEP
2800
ITEM: NUMBER OF ATOMS
5
ITEM: BOX BOUNDS ff ff ff
-5.00000000    5.00000000     
-5.00000000    5.00000000     
-5.00000000    5.00000000     
ITEM: ATOMS id type q x y z mux muy muz
      1   1    1.0000       0.962184       4.477163      -4.124027       0.988316       0.061780       0.139334
      2   2   -1.0000       1.067271      -0.293547       0.767942       0.907552       0.111683      -0.404816
      3   1    1.0000       2.264102      -1.949878      -4.402169      -0.406071       0.913785       0.010118
      4   2   -1.0000       1.487574      -1.296740      -4.006428      -0.626545       0.647228       0.434208
      5   2   -1.0000      -1.521848      -2.582384       1.165307       0.753658       0.656478      -0.032196
ITEM: TIMESTEP
2900
ITEM: NUMBER OF ATOMS
5
ITEM: BOX BOUNDS ff ff ff
-5.00000000    5.00000000     
-5.00000000    5.00000000     
-5.00000000    5.00000000     
ITEM: ATOMS id type q x y z mux muy muz
      1   1    1.0000       0.988085       4.473704      -4.114937       0.987047       0.051948       0.151788
      2   2   -1.0000       1.076402      -0.308449       0.789881       0.912111       0.091554      -0.399590
      3   1    1.0000       2.224140      -1.933864      -4.406465      -0.498425       0.866909       0.006425
      4   2   -1.0000       1.458092      -1.263088      -3.945668      -0.633355       0.671305       0.384982
      5   2   -1.0000      -1.487436      -2.613688       1.163958       0.753694       0.656427      -0.032400
ITEM: TIMESTEP
3000
ITEM: NUMBER OF ATOMS
5
ITEM: BOX BOUNDS ff ff ff
-5.00000000    5.00000000     
-5.00000000    5.00000000     
-5.00000000    5.00000000     
ITEM: ATOMS id type q x y z mux muy muz
      1   1    1.0000       1.017928       4.469572      -4.104237       0.985799       0.044030       0.162053
      2   2   -1.0000       1.087313      -0.325187       0.815024       0.915606       0.074187      -0.395174
      3   1    1.0000       2.131522      -1.890796      -4.375257      -0.607300       0.789754       0.086461
      4   2   -1.0000       1.470488      -1.248932      -3.911601      -0.659333       0.652806       0.372994
      5   2   -1.0000      -1.447968      -2.650044       1.162353       0.753303       0.656889      -0.032113
ITEM: TIMESTEP
3100
ITEM: NUMBER OF ATOMS
5
ITEM: BOX BOUNDS ff ff ff
-5.00000000    5.00000000     
-5.00000000    5.00000000     
-5.00000000    5.00000000     
ITEM: ATOMS id type q x y z mux muy muz
      1   1    1.0000       1.044033       4.465826      -4.094687       0.984637       0.037636       0.170510
      2   2   -1.0000       1.097189      -0.339451       0.836879       0.918340       0.059181      -0.391343
      3   1    1.0000       2.072762      -1.883338      -4.350980      -0.682322       0.694703       0.227650
      4   2   -1.0000       1.458910      -1.206340      -3.878585      -0.678674       0.607465       0.412780
      5   2   -1.0000      -1.413611      -2.682084       1.160897       0.752543       0.657799      -0.031314
ITEM: TIMESTEP
3200
ITEM: NUMBER OF ATOMS
5
ITEM: BOX BOUNDS ff ff ff
-5.00000000    5.00000000     
-5.00000000    5.00000000     
-5.00000000    5.00000000     
ITEM: ATOMS id type q x y z mux muy muz
      1   1    1.0000       1.070646       4.461852      -4.084754       0.983537       0.032047       0.177842
      2   2   -1.0000       1.107612      -0.353593       0.858986       0.920654       0.045565      -0.387712
      3   1    1.0000       2.041763      -1.900713      -4.333321      -0.697227       0.609353       0.377575
      4   2   -1.0000       1.418030      -1.137941      -3.837610      -0.667315       0.566105       0.483958
      5   2   -1.0000      -1.378768      -2.714992       1.159345       0.751405       0.659161      -0.029960
ITEM: TIMESTEP
3300
ITEM: NUMBER OF ATOMS
5
ITEM: BOX BOUNDS ff ff ff
-5.00000000    5.00000000     
-5.00000000    5.00000000     
-5.00000000    5.00000000     
ITEM: ATOMS id type q x y z mux muy muz
      1   1    1.0000       1.101898       4.456998      -4.072890       0.982414       0.026472       0.184831
      2   2   -1.0000       1.120241      -0.369781       0.884748       0.922845       0.032040      -0.383836
      3   1    1.0000       1.979201      -1.875276      -4.284258      -0.664659       0.556759       0.498245
      4   2   -1.0000       1.395981      -1.103427      -3.817544      -0.620752       0.551725       0.557016
      5   2   -1.0000      -1.338038      -2.753901       1.157439       0.749781       0.661096      -0.027941
ITEM: TIMESTEP
3400
ITEM: NUMBER OF ATOMS
5
ITEM: BOX BOUNDS ff ff ff
-5.00000000    5.00000000     
-5.00000000    5.00000000     
-5.00000000    5.00000000     
ITEM: ATOMS id type q x y z mux muy muz
      1   1    1.0000       1.131040       4.452299      -4.061660       0.981251       0.020738       0.191614
      2   2   -1.0000       1.132374      -0.384513       0.908578       0.925005       0.018356      -0.379511
      3   1    1.0000       1.915255      -1.828499      -4.234676      -0.606064       0.556977       0.567858
      4   2   -1.0000       1.380826      -1.094256      -3.802386      -0.542671       0.585847       0.601907
      5   2   -1.0000      -1.300212      -2.790418       1.155585       0.747636       0.663629      -0.025227
ITEM: TIMESTEP
3500
ITEM: NUMBER OF ATOMS
5
ITEM: BOX BOUNDS ff ff ff
-5.00000000    5.00000000     
-5.00000000    5.00000000     
-5.00000000    5.00000000     
ITEM: ATOMS id type q x y z mux muy muz
      1   1    1.0000       1.164224       4.446763      -4.048692       0.980110       0.015195       0.197870
      2   2   -1.0000       1.146599      -0.400883       0.935494       0.927043       0.005131      -0.374919
      3   1    1.0000       1.885115      -1.817722      -4.221048      -0.547475       0.606153       0.576931
      4   2   -1.0000       1.320644      -1.041282      -3.741961      -0.452233       0.668727       0.590160
      5   2   -1.0000      -1.257299      -2.832262       1.153388       0.745114       0.666573      -0.022058
ITEM: TIMESTEP
3600
ITEM: NUMBER OF ATOMS
5
ITEM: BOX BOUNDS ff ff ff
-5.00000000    5.00000000     
-5.00000000    5.00000000     
-5.00000000    5.00000000     
ITEM: ATOMS id type q x y z mux muy muz
      1   1    1.0000       1.194132       4.441619      -4.036843       0.979022       0.010092       0.203504
      2   2   -1.0000       1.159790      -0.415268       0.959569       0.928849      -0.007371      -0.370384
      3   1    1.0000       1.845485      -1.788153      -4.206526      -0.507628       0.663875       0.549167
      4   2   -1.0000       1.278638      -1.013366      -3.689450      -0.376029       0.759454       0.530879
      5   2   -1.0000      -1.218762      -2.870219       1.151341       0.742358       0.669741      -0.018757
ITEM: TIMESTEP
3700
ITEM: NUMBER OF ATOMS
5
ITEM: BOX BOUNDS ff ff ff
-5.00000000    5.00000000     
-5.00000000    5.00000000     
-5.00000000    5.00000000     
ITEM: ATOMS id type q x y z mux muy muz
      1   1    1.0000       1.225270       4.436116      -4.024325       0.977922       0.005288       0.208902
      2   2   -1.0000       1.173923      -0.429834       0.984454       0.930457      -0.019930      -0.365859
      3   1    1.0000       1.775678      -1.725221      -4.173357      -0.490250       0.705036       0.512425
      4   2   -1.0000       1.263207      -1.016443      -3.652546      -0.332648       0.828002       0.451396
      5   2   -1.0000      -1.178794      -2.910004       1.149152       0.739323       0.673176      -0.015369
ITEM: TIMESTEP
3800
ITEM: NUMBER OF ATOMS
5
ITEM: BOX BOUNDS ff ff ff
-5.00000000    5.00000000     
-5.00000000    5.00000000     
-5.00000000    5.00000000     
ITEM: ATOMS id type q x y z mux muy muz
      1   1    1.0000       1.255051       4.430729      -4.012175       0.976763       0.000717       0.214321
      2   2   -1.0000       1.187815      -0.443352       1.008089       0.931870      -0.033099      -0.361279
      3   1    1.0000       1.726090      -1.703305      -4.164086      -0.492722       0.717634       0.492164
      4   2   -1.0000       1.231057      -0.981146      -3.594557      -0.338179       0.856254       0.390467
      5   2   -1.0000      -1.140730      -2.948312       1.147010       0.735973       0.676906      -0.011886
ITEM: TIMESTEP
3900
ITEM: NUMBER OF ATOMS
5
ITEM: BOX BOUNDS ff ff ff
-5.00000000    5.00000000     
-5.00000000    5.00000000     
-5.00000000    5.00000000     
ITEM: ATOMS id type q x y z mux muy muz