ITEM: TIMESTEP
0
ITEM: NUMBER OF ATOMS
5
ITEM: BOX BOUNDS ff ff ff
-5.00000000    5.00000000     
-5.00000000    5.00000000     
-5.00000000    5.00000000     
ITEM: ATOMS id type q x y z mux muy muz
      1   1    1.0000      -1.519046       1.574159      -4.843001       0.930807      -0.346682      -0.115802
      2   2   -1.0000      -4.355977      -4.003379      -0.809978       0.563348       0.709762       0.422938
      3   1    1.0000       3.147993       3.882062      -2.551725       0.197143      -0.781145      -0.592407
      4   2   -1.0000       0.743565       2.683547      -2.111624      -0.062745       0.188771      -0.980015
      5   2   -1.0000      -0.910094       0.239324      -3.652112       0.259014       0.890176       0.374831
ITEM: TIMESTEP
100
ITEM: NUMBER OF ATOMS
5
ITEM: BOX BOUNDS ff ff ff
-5.00000000    5.00000000     
-5.00000000    5.00000000     
-5.00000000    5.00000000     
ITEM: ATOMS id type q x y z mux muy muz
      1   1    1.0000      -1.519774       1.595143      -4.790125       0.914958      -0.372308      -0.155690
      2   2   -1.0000      -4.328603      -4.002439      -0.801439       0.512464       0.842244       0.167351
      3   1    1.0000       3.150768       3.910242      -2.534429       0.196081      -0.785502      -0.586974
      4   2   -1.0000       0.730783       2.673472      -2.104026      -0.073947       0.185714      -0.979817
      5   2   -1.0000      -0.926733       0.199295      -3.738420       0.261070       0.891994       0.369039
ITEM: TIMESTEP
200
ITEM: NUMBER OF ATOMS
5
ITEM: BOX BOUNDS ff ff ff
-5.00000000    5.00000000     
-5.00000000    5.00000000     
-5.00000000    5.00000000     
ITEM: ATOMS id type q x y z mux muy muz
      1   1    1.0000      -1.521665       1.612757      -4.736295       0.891306      -0.413998      -0.184878
      2   2   -1.0000      -4.300954      -4.001591      -0.792762       0.417857       0.902547      -0.103948
      3   1    1.0000       3.152844       3.938517      -2.515878       0.187712      -0.795780      -0.575759
      4   2   -1.0000       0.718789       2.663791      -2.097531      -0.095290       0.181706      -0.978725
      5   2   -1.0000      -0.942573       0.162239      -3.825973       0.268036       0.873864       0.405609
ITEM: TIMESTEP
300
ITEM: NUMBER OF ATOMS
5
ITEM: BOX BOUNDS ff ff ff
-5.00000000    5.00000000     
-5.00000000    5.00000000     
-5.00000000    5.00000000     
ITEM: ATOMS id type q x y z mux muy muz
      1   1    1.0000      -1.524847       1.626932      -4.681810       0.859652      -0.467490      -0.206038
      2   2   -1.0000      -4.272933      -4.000824      -0.783912       0.290957       0.885994      -0.361052
      3   1    1.0000       3.154185       3.966948      -2.496009       0.173097      -0.810476      -0.559612
      4   2   -1.0000       0.707583       2.654491      -2.092131      -0.124855       0.176815      -0.976293
      5   2   -1.0000      -0.957547       0.128165      -3.914577       0.280004       0.831829       0.479227
ITEM: TIMESTEP
400
ITEM: NUMBER OF ATOMS
5
ITEM: BOX BOUNDS ff ff ff
-5.00000000    5.00000000     
-5.00000000    5.00000000     
-5.00000000    5.00000000     
ITEM: ATOMS id type q x y z mux muy muz
      1   1    1.0000      -1.529435       1.637356      -4.626914       0.819299      -0.528889      -0.221419
      2   2   -1.0000      -4.244437      -4.000131      -0.774850       0.147341       0.801324      -0.579802
      3   1    1.0000       3.154732       3.995596      -2.474745       0.153186      -0.828090      -0.539260
      4   2   -1.0000       0.697181       2.645561      -2.087832      -0.160976       0.171102      -0.972014
      5   2   -1.0000      -0.971600       0.097331      -4.004098       0.295978       0.758281       0.580867
ITEM: TIMESTEP
500
ITEM: NUMBER OF ATOMS
5
ITEM: BOX BOUNDS ff ff ff
-5.00000000    5.00000000     
-5.00000000    5.00000000     
-5.00000000    5.00000000     
ITEM: ATOMS id type q x y z mux muy muz
      1   1    1.0000      -1.535496       1.643420      -4.571841       0.769516      -0.594693      -0.232779
      2   2   -1.0000      -4.215356      -3.999502      -0.765538       0.002575       0.666170      -0.745796
      3   1    1.0000       3.154401       4.024517      -2.451993       0.128792      -0.847256      -0.515334
      4   2   -1.0000       0.687613       2.636994      -2.084643      -0.202265       0.164603      -0.965399
      5   2   -1.0000      -0.984721       0.070284      -4.094425       0.313934       0.644309       0.697360
ITEM: TIMESTEP
600
ITEM: NUMBER OF ATOMS
5
ITEM: BOX BOUNDS ff ff ff
-5.00000000    5.00000000     
-5.00000000    5.00000000     
-5.00000000    5.00000000     
ITEM: ATOMS id type q x y z mux muy muz
      1   1    1.0000      -1.542995       1.644169      -4.516869       0.709942      -0.661567      -0.241477
      2   2   -1.0000      -4.185572      -3.998927      -0.755935      -0.130794       0.501747      -0.855069
      3   1    1.0000       3.153085       4.053768      -2.427649       0.100617      -0.866784      -0.488428
      4   2   -1.0000       0.678925       2.628794      -2.082579      -0.247535       0.157301      -0.956025
      5   2   -1.0000      -0.997002       0.047909      -4.185409       0.330816       0.482962       0.810746
ITEM: TIMESTEP
700
ITEM: NUMBER OF ATOMS
5
ITEM: BOX BOUNDS ff ff ff
-5.00000000    5.00000000     
-5.00000000    5.00000000     
-5.00000000    5.00000000     
ITEM: ATOMS id type q x y z mux muy muz
      1   1    1.0000      -1.551716       1.638277      -4.462414       0.640985      -0.726172      -0.248622
      2   2   -1.0000      -4.154967      -3.998395      -0.746006      -0.244845       0.328104      -0.912359
      3   1    1.0000       3.150654       4.083388      -2.401604       0.069281      -0.885668      -0.459122
      4   2   -1.0000       0.671184       2.620977      -2.081649      -0.295751       0.149109      -0.943556
      5   2   -1.0000      -1.008714       0.031465      -4.276767       0.342763       0.273139       0.898837
ITEM: TIMESTEP
800
ITEM: NUMBER OF ATOMS
5
ITEM: BOX BOUNDS ff ff ff
-5.00000000    5.00000000     
-5.00000000    5.00000000     
-5.00000000    5.00000000     
ITEM: ATOMS id type q x y z mux muy muz
      1   1    1.0000      -1.561173       1.624057      -4.409139       0.564172      -0.785216      -0.255236
      2   2   -1.0000      -4.123446      -3.997897      -0.735729      -0.336477       0.160775      -0.927866
      3   1    1.0000       3.146959       4.113382      -2.373772       0.035311      -0.903106      -0.427963
      4   2   -1.0000       0.664482       2.613584      -2.081862      -0.346016       0.139844      -0.927748
      5   2   -1.0000      -1.020381       0.022586      -4.367937       0.345765       0.023055       0.938038
ITEM: TIMESTEP
900
ITEM: NUMBER OF ATOMS
5
ITEM: BOX BOUNDS ff ff ff
-5.00000000    5.00000000     
-5.00000000    5.00000000     
-5.00000000    5.00000000     
ITEM: ATOMS id type q x y z mux muy muz
      1   1    1.0000      -1.570509       1.599548      -4.358116       0.482343      -0.835751      -0.262424
      2   2   -1.0000      -4.090993      -3.997421      -0.725114      -0.406458       0.009333      -0.913622
      3   1    1.0000       3.141838       4.143661      -2.344136      -0.000889      -0.918503      -0.395414
      4   2   -1.0000       0.658947       2.606689      -2.083213      -0.397605       0.129207      -0.908414
      5   2   -1.0000      -1.032842       0.023236      -4.457862       0.336719      -0.248449       0.908236
ITEM: TIMESTEP
1000
ITEM: NUMBER OF ATOMS
5
ITEM: BOX BOUNDS ff ff ff
-5.00000000    5.00000000     
-5.00000000    5.00000000     
-5.00000000    5.00000000     
ITEM: ATOMS id type q x y z mux muy muz
      1   1    1.0000      -1.578414       1.562705      -4.311003       0.399587      -0.875556      -0.271536
      2   2   -1.0000      -4.057760      -3.996965      -0.714226      -0.457865      -0.122199      -0.880583
      3   1    1.0000       3.135151       4.173969      -2.312844      -0.039082      -0.931438      -0.361796
      4   2   -1.0000       0.654743       2.600415      -2.085671      -0.449990       0.116780      -0.885365
      5   2   -1.0000      -1.047279       0.035588      -4.544695       0.314532      -0.513940       0.798082
ITEM: TIMESTEP
1100
ITEM: NUMBER OF ATOMS
5
ITEM: BOX BOUNDS ff ff ff
-5.00000000    5.00000000     
-5.00000000    5.00000000     
-5.00000000    5.00000000     
ITEM: ATOMS id type q x y z mux muy muz
      1   1    1.0000      -1.583061       1.511720      -4.270240       0.321005      -0.903400      -0.284295
      2   2   -1.0000      -4.024201      -3.996530      -0.703235      -0.494576      -0.233788      -0.837101
      3   1    1.0000       3.126829       4.203773      -2.280346      -0.079196      -0.941609      -0.327261
      4   2   -1.0000       0.652065       2.594947      -2.089158      -0.502818       0.102032      -0.858349
      5   2   -1.0000      -1.065191       0.061804      -4.625461       0.280819      -0.742273       0.608417
ITEM: TIMESTEP
1200
ITEM: NUMBER OF ATOMS
5
ITEM: BOX BOUNDS ff ff ff
-5.00000000    5.00000000     
-5.00000000    5.00000000     
-5.00000000    5.00000000     
ITEM: ATOMS id type q x y z mux muy muz
      1   1    1.0000      -1.582102       1.445499      -4.239171       0.252466      -0.918976      -0.302894
      2   2   -1.0000      -3.991231      -3.996127      -0.692455      -0.520243      -0.327577      -0.788695
      3   1    1.0000       3.116967       4.232145      -2.247575      -0.121298      -0.948752      -0.291816
      4   2   -1.0000       0.651101       2.590526      -2.093501      -0.555844       0.084340      -0.826997
      5   2   -1.0000      -1.088293       0.103670      -4.695737       0.240030      -0.904402       0.352765
ITEM: TIMESTEP
1300
ITEM: NUMBER OF ATOMS
5
ITEM: BOX BOUNDS ff ff ff
-5.00000000    5.00000000     
-5.00000000    5.00000000     
-5.00000000    5.00000000     
ITEM: ATOMS id type q x y z mux muy muz
      1   1    1.0000      -1.572768       1.364230      -4.222038       0.200590      -0.922422      -0.330004
      2   2   -1.0000      -3.960371      -3.995777      -0.682395      -0.537827      -0.406464      -0.738599
      3   1    1.0000       3.105950       4.257694      -2.216120      -0.165511      -0.952569      -0.255380
      4   2   -1.0000       0.651956       2.587424      -2.098389      -0.608810       0.063034      -0.790808
      5   2   -1.0000      -1.118326       0.162141      -4.749499       0.199196      -0.978387       0.055498
ITEM: TIMESTEP
1400
ITEM: NUMBER OF ATOMS
5
ITEM: BOX BOUNDS ff ff ff
-5.00000000    5.00000000     
-5.00000000    5.00000000     
-5.00000000    5.00000000     
ITEM: ATOMS id type q x y z mux muy muz
      1   1    1.0000      -1.552116       1.269633      -4.223740       0.172997      -0.913395      -0.368485
      2   2   -1.0000      -3.933748      -3.995507      -0.673749      -0.549524      -0.473293      -0.688489
      3   1    1.0000       3.094595       4.278645      -2.188273      -0.211955      -0.952692      -0.217839
      4   2   -1.0000       0.654518       2.585856      -2.103325      -0.661350       0.037444      -0.749142
      5   2   -1.0000      -1.156808       0.237086      -4.779353       0.167652      -0.953388      -0.250886
ITEM: TIMESTEP
1500
ITEM: NUMBER OF ATOMS
5
ITEM: BOX BOUNDS ff ff ff
-5.00000000    5.00000000     
-5.00000000    5.00000000     
-5.00000000    5.00000000     
ITEM: ATOMS id type q x y z mux muy muz
      1   1    1.0000      -1.517725       1.164454      -4.248918       0.178456      -0.889741      -0.420137
      2   2   -1.0000      -3.913737      -3.995344      -0.667281      -0.556899      -0.530614      -0.638993
      3   1    1.0000       3.084190       4.293249      -2.166713      -0.260772      -0.948658      -0.179013
      4   2   -1.0000       0.658296       2.585831      -2.107648      -0.712994       0.006919      -0.701136
      5   2   -1.0000      -1.204583       0.327523      -4.777879       0.157008      -0.834452      -0.528240
ITEM: TIMESTEP
1600
ITEM: NUMBER OF ATOMS
5
ITEM: BOX BOUNDS ff ff ff
-5.00000000    5.00000000     
-5.00000000    5.00000000     
-5.00000000    5.00000000     
ITEM: ATOMS id type q x y z mux muy muz
      1   1    1.0000      -1.503267       1.139935      -4.237488       0.222480      -0.847872      -0.481265
      2   2   -1.0000      -3.900708      -3.995288      -0.663094      -0.561050      -0.581191      -0.589440
      3   1    1.0000       3.075533       4.301569      -2.152116      -0.312692      -0.939749      -0.138188
      4   2   -1.0000       0.662635       2.587010      -2.110993      -0.763630      -0.029502      -0.644979
      5   2   -1.0000      -1.227752       0.342487      -4.804750       0.178435      -0.653300      -0.735772
ITEM: TIMESTEP
1700
ITEM: NUMBER OF ATOMS
5
ITEM: BOX BOUNDS ff ff ff
-5.00000000    5.00000000     
-5.00000000    5.00000000     
-5.00000000    5.00000000     
ITEM: ATOMS id type q x y z mux muy muz
      1   1    1.0000      -1.505540       1.174760      -4.179946       0.285756      -0.792147      -0.539302
      2   2   -1.0000      -3.887170      -3.995303      -0.658754      -0.562515      -0.630528      -0.534800
      3   1    1.0000       3.064088       4.308625      -2.136292      -0.372045      -0.923688      -0.091555
      4   2   -1.0000       0.669599       2.589850      -2.115082      -0.815638      -0.075406      -0.573628
      5   2   -1.0000      -1.234537       0.297781      -4.878365       0.219576      -0.460301      -0.860180
ITEM: TIMESTEP
1800
ITEM: NUMBER OF ATOMS
5
ITEM: BOX BOUNDS ff ff ff
-5.00000000    5.00000000     
-5.00000000    5.00000000     
-5.00000000    5.00000000     
ITEM: ATOMS id type q x y z mux muy muz
      1   1    1.0000      -1.493079       1.165783      -4.131428       0.344902      -0.729517      -0.590633
      2   2   -1.0000      -3.867233      -3.995418      -0.652352      -0.560325      -0.685100      -0.465483
      3   1    1.0000       3.044106       4.316910      -2.112266      -0.445971      -0.894457      -0.032490
      4   2   -1.0000       0.682991       2.596194      -2.121784      -0.870428      -0.137300      -0.472763
      5   2   -1.0000      -1.260345       0.292243      -4.950610       0.260486      -0.283229      -0.923000
ITEM: TIMESTEP
1900
ITEM: NUMBER OF ATOMS
5
ITEM: BOX BOUNDS ff ff ff
-5.00000000    5.00000000     
-5.00000000    5.00000000     
-5.00000000    5.00000000     
ITEM: ATOMS id type q x y z mux muy muz
      1   1    1.0000      -1.470321       1.103994      -4.101837       0.379386      -0.669008      -0.639135
      2   2   -1.0000      -3.841158      -3.995654      -0.643947      -0.551465      -0.745814      -0.373695
      3   1    1.0000       3.014850       4.325548      -2.080309      -0.535256      -0.843668       0.041535
      4   2   -1.0000       0.703626       2.606751      -2.131063      -0.918351      -0.217144      -0.330877
      5   2   -1.0000      -1.300556       0.335073      -4.986973       0.285329      -0.150662      -0.946514
ITEM: TIMESTEP
2000
ITEM: NUMBER OF ATOMS
5
ITEM: BOX BOUNDS ff ff ff
-5.00000000    5.00000000     
-5.00000000    5.00000000     
-5.00000000    5.00000000     
ITEM: ATOMS id type q x y z mux muy muz
      1   1    1.0000      -1.451595       1.012317      -4.106588       0.363825      -0.624939      -0.690711
      2   2   -1.0000      -3.818748      -3.995926      -0.636690      -0.531826      -0.806973      -0.256818
      3   1    1.0000       2.986986       4.330950      -2.052625      -0.631245      -0.765336       0.125661
      4   2   -1.0000       0.724068       2.617880      -2.139265      -0.939596      -0.307881      -0.149561
      5   2   -1.0000      -1.334271       0.410491      -4.918595       0.275675      -0.102572      -0.955763
ITEM: TIMESTEP
2100
ITEM: NUMBER OF ATOMS
5
ITEM: BOX BOUNDS ff ff ff
-5.00000000    5.00000000     
-5.00000000    5.00000000     
-5.00000000    5.00000000     
ITEM: ATOMS id type q x y z mux muy muz
      1   1    1.0000      -1.457350       0.973475      -4.045722       0.273713      -0.609320      -0.744184
      2   2   -1.0000      -3.802065      -3.996194      -0.631259      -0.499905      -0.857014      -0.124987
      3   1    1.0000       2.963541       4.332856      -2.032077      -0.716874      -0.666179       0.205664
      4   2   -1.0000       0.741982       2.628290      -2.145345      -0.918717      -0.392511       0.043521
      5   2   -1.0000      -1.339667       0.437286      -4.932011       0.211612      -0.181673      -0.960320
ITEM: TIMESTEP
2200
ITEM: NUMBER OF ATOMS
5
ITEM: BOX BOUNDS ff ff ff
-5.00000000    5.00000000     
-5.00000000    5.00000000     
-5.00000000    5.00000000     
ITEM: ATOMS id type q x y z mux muy muz
      1   1    1.0000      -1.474223       0.951827      -3.963423       0.150402      -0.593759      -0.790461
      2   2   -1.0000      -3.787374      -3.996493      -0.626455      -0.462408      -0.886657      -0.004400
      3   1    1.0000       2.939906       4.332096      -2.014351      -0.777249      -0.571062       0.264143
      4   2   -1.0000       0.760755       2.639902      -2.150387      -0.867599      -0.454525       0.201688
      5   2   -1.0000      -1.332624       0.448381      -4.972412       0.120403      -0.320954      -0.939410
ITEM: TIMESTEP
2300
ITEM: NUMBER OF ATOMS
5
ITEM: BOX BOUNDS ff ff ff
-5.00000000    5.00000000     
-5.00000000    5.00000000     
-5.00000000    5.00000000     
ITEM: ATOMS id type q x y z mux muy muz
      1   1    1.0000      -1.489880       0.885687      -3.916678       0.033805      -0.548818      -0.835258
      2   2   -1.0000      -3.766215      -3.996984      -0.619530      -0.419535      -0.900988       0.110504
      3   1    1.0000       2.901965       4.327697      -1.989654      -0.821819      -0.480953       0.305448
      4   2   -1.0000       0.791738       2.659949      -2.156897      -0.798924      -0.502526       0.330436
      5   2   -1.0000      -1.331167       0.499365      -4.958662       0.034384      -0.453015      -0.890839
ITEM: TIMESTEP
2400
ITEM: NUMBER OF ATOMS
5
ITEM: BOX BOUNDS ff ff ff
-5.00000000    5.00000000     
-5.00000000    5.00000000     
-5.00000000    5.00000000     
ITEM: ATOMS id type q x y z mux muy muz
      1   1    1.0000      -1.491756       0.810988      -3.924503      -0.052863      -0.445364      -0.893788
      2   2   -1.0000      -3.745894      -3.997491      -0.612895      -0.365552      -0.900909       0.233954
      3   1    1.0000       2.862367       4.320681      -1.966936      -0.858768      -0.388532       0.334007
      4   2   -1.0000       0.824730       2.682036      -2.162208      -0.712366      -0.545142       0.441990
      5   2   -1.0000      -1.343005       0.559500      -4.892610      -0.023233      -0.543819      -0.838881
ITEM: TIMESTEP
2500
ITEM: NUMBER OF ATOMS
5
ITEM: BOX BOUNDS ff ff ff
-5.00000000    5.00000000     
-5.00000000    5.00000000     
-5.00000000    5.00000000     
ITEM: ATOMS id type q x y z mux muy muz
      1   1    1.0000      -1.491755       0.770826      -3.866580      -0.075210      -0.250077      -0.965300
      2   2   -1.0000      -3.726039      -3.998021      -0.606440      -0.295234      -0.880487       0.370917
      3   1    1.0000       2.820471       4.310891      -1.946044      -0.890135      -0.293377       0.348698
      4   2   -1.0000       0.860279       2.706624      -2.166148      -0.609249      -0.585026       0.535313
      5   2   -1.0000      -1.356516       0.585393      -4.893497      -0.020810      -0.553359      -0.832683
ITEM: TIMESTEP
2600
ITEM: NUMBER OF ATOMS
5
ITEM: BOX BOUNDS ff ff ff
-5.00000000    5.00000000     
-5.00000000    5.00000000     
-5.00000000    5.00000000     
ITEM: ATOMS id type q x y z mux muy muz
      1   1    1.0000      -1.484400       0.751915      -3.796235      -0.034261      -0.018837      -0.999235
      2   2   -1.0000      -3.707225      -3.998563      -0.600342      -0.220033      -0.840202       0.495627
      3   1    1.0000       2.777603       4.298624      -1.927800      -0.912987      -0.215189       0.346623
      4   2   -1.0000       0.897226       2.732999      -2.168386      -0.514432      -0.618601       0.593879
      5   2   -1.0000      -1.376763       0.590738      -4.909644       0.033277      -0.478768      -0.877310
ITEM: TIMESTEP
2700
ITEM: NUMBER OF ATOMS
5
ITEM: BOX BOUNDS ff ff ff
-5.00000000    5.00000000     
-5.00000000    5.00000000     
-5.00000000    5.00000000     
ITEM: ATOMS id type q x y z mux muy muz
      1   1    1.0000      -1.461535       0.722940      -3.777249       0.031650       0.181256      -0.982927
      2   2   -1.0000      -3.681847      -3.999358      -0.592110      -0.144910      -0.784954       0.602368
      3   1    1.0000       2.715881       4.278310      -1.905351      -0.930783      -0.157721       0.329798
      4   2   -1.0000       0.951015       2.772424      -2.169317      -0.436830      -0.650083       0.621749
      5   2   -1.0000      -1.417073       0.601397      -4.855328       0.100864      -0.351689      -0.930667
ITEM: TIMESTEP
2800
ITEM: NUMBER OF ATOMS
5
ITEM: BOX BOUNDS ff ff ff
-5.00000000    5.00000000     
-5.00000000    5.00000000     
-5.00000000    5.00000000     
ITEM: ATOMS id type q x y z mux muy muz
      1   1    1.0000      -1.442325       0.693679      -3.787557       0.091882       0.318883      -0.943330
      2   2   -1.0000      -3.660821      -4.000088      -0.585259      -0.063661      -0.710773       0.700535
      3   1    1.0000       2.661480       4.258242      -1.888769      -0.947787      -0.115984       0.297065
      4   2   -1.0000       0.998835       2.808363      -2.168137      -0.371524      -0.686307       0.625263
      5   2   -1.0000      -1.450727       0.615517      -4.784115       0.150774      -0.188737      -0.970384
ITEM: TIMESTEP
2900
ITEM: NUMBER OF ATOMS
5
ITEM: BOX BOUNDS ff ff ff
-5.00000000    5.00000000     
-5.00000000    5.00000000     
-5.00000000    5.00000000     
ITEM: ATOMS id type q x y z mux muy muz
      1   1    1.0000      -1.429581       0.657422      -3.713424       0.116658       0.370440      -0.921501
      2   2   -1.0000      -3.637808      -4.000990      -0.577700       0.036744      -0.600130       0.799058
      3   1    1.0000       2.597806       4.232116      -1.873325      -0.966562      -0.086568       0.241381
      4   2   -1.0000       1.055257       2.851878      -2.164225      -0.311839      -0.734426       0.602805
      5   2   -1.0000      -1.479233       0.635287      -4.791377       0.149481      -0.006234      -0.988745
ITEM: TIMESTEP
3000
ITEM: NUMBER OF ATOMS
5
ITEM: BOX BOUNDS ff ff ff
-5.00000000    5.00000000     
-5.00000000    5.00000000     
-5.00000000    5.00000000     
ITEM: ATOMS id type q x y z mux muy muz
      1   1    1.0000      -1.429327       0.617095      -3.670817       0.090601       0.333852      -0.938261
      2   2   -1.0000      -3.618791      -4.001826      -0.571392       0.154806      -0.443367       0.882871
      3   1    1.0000       2.540945       4.206205      -1.863407      -0.984218      -0.074266       0.160624
      4   2   -1.0000       1.106062       2.892157      -2.158205      -0.262693      -0.793181       0.549415
      5   2   -1.0000      -1.492449       0.662081      -4.778553       0.085577       0.157079      -0.983871
ITEM: TIMESTEP
3100
ITEM: NUMBER OF ATOMS
5
ITEM: BOX BOUNDS ff ff ff
-5.00000000    5.00000000     
-5.00000000    5.00000000     
-5.00000000    5.00000000     
ITEM: ATOMS id type q x y z mux muy muz
      1   1    1.0000      -1.439705       0.567743      -3.684661       0.026311       0.232063      -0.972345
      2   2   -1.0000      -3.599674      -4.002758      -0.564993       0.268135      -0.262561       0.926912
      3   1    1.0000       2.478068       4.174333      -1.857127      -0.994254      -0.083662       0.066781
      4   2   -1.0000       1.162784       2.938473      -2.148508      -0.234458      -0.850926       0.470058
      5   2   -1.0000      -1.495032       0.697921      -4.708811      -0.014205       0.260508      -0.965367
ITEM: TIMESTEP
3200
ITEM: NUMBER OF ATOMS
5
ITEM: BOX BOUNDS ff ff ff
-5.00000000    5.00000000     
-5.00000000    5.00000000     
-5.00000000    5.00000000     
ITEM: ATOMS id type q x y z mux muy muz
      1   1    1.0000      -1.449922       0.517435      -3.672849      -0.051137       0.105889      -0.993062
      2   2   -1.0000      -3.584660      -4.003559      -0.559934       0.364868      -0.077651       0.927815
      3   1    1.0000       2.421947       4.142440      -1.856167      -0.992819      -0.115036      -0.032814
      4   2   -1.0000       1.214024       2.981728      -2.136954      -0.229764      -0.900680       0.368760
      5   2   -1.0000      -1.494949       0.737669      -4.676563      -0.115310       0.306202      -0.944957
ITEM: TIMESTEP
3300
ITEM: NUMBER OF ATOMS
5
ITEM: BOX BOUNDS ff ff ff
-5.00000000    5.00000000     
-5.00000000    5.00000000     
-5.00000000    5.00000000     
ITEM: ATOMS id type q x y z mux muy muz
      1   1    1.0000      -1.455347       0.467616      -3.633954      -0.113705       0.008052      -0.993482
      2   2   -1.0000      -3.571250      -4.004326      -0.555406       0.445248       0.109285       0.888713
      3   1    1.0000       2.362189       4.104155      -1.860257      -0.975676      -0.170090      -0.138296
      4   2   -1.0000       1.269383       3.030188      -2.121712      -0.248564      -0.937864       0.242131
      5   2   -1.0000      -1.498534       0.778080      -4.675951      -0.188216       0.328974      -0.925392
ITEM: TIMESTEP
3400
ITEM: NUMBER OF ATOMS
5
ITEM: BOX BOUNDS ff ff ff
-5.00000000    5.00000000     
-5.00000000    5.00000000     
-5.00000000    5.00000000     
ITEM: ATOMS id type q x y z mux muy muz
      1   1    1.0000      -1.456056       0.439435      -3.636216      -0.146770      -0.026526      -0.988815
      2   2   -1.0000      -3.558859      -4.005065      -0.551234       0.508777       0.299457       0.807138
      3   1    1.0000       2.292871       4.054431      -1.869885      -0.935502      -0.252763      -0.246873
      4   2   -1.0000       1.334595       3.089329      -2.101798      -0.292312      -0.952341       0.087178
      5   2   -1.0000      -1.506110       0.797582      -4.637057      -0.219175       0.358292      -0.907518
ITEM: TIMESTEP
3500
ITEM: NUMBER OF ATOMS
5
ITEM: BOX BOUNDS ff ff ff
-5.00000000    5.00000000     
-5.00000000    5.00000000     
-5.00000000    5.00000000     
ITEM: ATOMS id type q x y z mux muy muz
      1   1    1.0000      -1.449892       0.430167      -3.647953      -0.144158       0.022464      -0.989300
      2   2   -1.0000      -3.549318      -4.005651      -0.548042       0.548333       0.474837       0.688376
      3   1    1.0000       2.218612       3.994847      -1.883379      -0.869436      -0.360430      -0.337892
      4   2   -1.0000       1.405645       3.156159      -2.080390      -0.359640      -0.929944      -0.076567
      5   2   -1.0000      -1.518606       0.800192      -4.597021      -0.202108       0.404327      -0.892004
ITEM: TIMESTEP
3600
ITEM: NUMBER OF ATOMS
5
ITEM: BOX BOUNDS ff ff ff
-5.00000000    5.00000000     
-5.00000000    5.00000000     
-5.00000000    5.00000000     
ITEM: ATOMS id type q x y z mux muy muz
      1   1    1.0000      -1.437297       0.419098      -3.622034      -0.115540       0.139323      -0.983483
      2   2   -1.0000      -3.542654      -4.006076      -0.545831       0.562242       0.616302       0.551413
      3   1    1.0000       2.140621       3.926738      -1.896437      -0.786139      -0.486691      -0.380944
      4   2   -1.0000       1.481341       3.229301      -2.061794      -0.448029      -0.868525      -0.211977
      5   2   -1.0000      -1.535570       0.806652      -4.603105      -0.150812       0.455146      -0.877552
ITEM: TIMESTEP
3700
ITEM: NUMBER OF ATOMS
5
ITEM: BOX BOUNDS ff ff ff
-5.00000000    5.00000000     
-5.00000000    5.00000000     
-5.00000000    5.00000000     
ITEM: ATOMS id type q x y z mux muy muz
      1   1    1.0000      -1.423428       0.416800      -3.606680      -0.083795       0.275157      -0.957741
      2   2   -1.0000      -3.535914      -4.006526      -0.543608       0.556102       0.722778       0.410295
      3   1    1.0000       2.173505       3.978529      -1.870432      -0.696179      -0.625665      -0.351964
      4   2   -1.0000       1.446082       3.182559      -2.082162      -0.556159      -0.779685      -0.287711
      5   2   -1.0000      -1.553804       0.804350      -4.598348      -0.094966       0.489023      -0.867086
ITEM: TIMESTEP
3800
ITEM: NUMBER OF ATOMS
5
ITEM: BOX BOUNDS ff ff ff
-5.00000000    5.00000000     
-5.00000000    5.00000000     
-5.00000000    5.00000000     
ITEM: ATOMS id type q x y z mux muy muz
      1   1    1.0000      -1.418118       0.423318      -3.620586      -0.067560       0.395394      -0.916024
      2   2   -1.0000      -3.530876      -4.006886      -0.541951       0.534356       0.802596       0.265148
      3   1    1.0000       2.199528       4.018940      -1.844517      -0.601310      -0.750176      -0.275069
      4   2   -1.0000       1.418254       3.145893      -2.103820      -0.660773      -0.681597      -0.314332
      5   2   -1.0000      -1.562347       0.794448      -4.569386      -0.056784       0.493201      -0.868060
ITEM: TIMESTEP
3900
ITEM: NUMBER OF ATOMS
5
ITEM: BOX BOUNDS ff ff ff
-5.00000000    5.00000000     
-5.00000000    5.00000000     
-5.00000000    5.00000000     
ITEM: ATOMS id type q x y z mux muy muz