ITEM: TIMESTEP
0
ITEM: NUMBER OF ATOMS
5
ITEM: BOX BOUNDS ff ff ff
-5.00000000    5.00000000     
-5.00000000    5.00000000     
-5.00000000    5.00000000     
ITEM: ATOMS id type q x y z mux muy muz
      1   1    1.0000       1.566192       4.188369      -0.993946       0.137056       0.751367       0.645494
      2   2   -1.0000      -3.076879      -2.292589       3.539994      -0.554409       0.189962       0.810275
      3   1    1.0000       0.716529      -0.449495      -3.504354      -0.367498      -0.473651       0.800374
      4   2   -1.0000      -0.502304      -2.215491       4.431797       0.776335      -0.088452      -0.624083
      5   2   -1.0000       3.840483      -4.160991       0.167004       0.967674      -0.082596       0.238297
ITEM: TIMESTEP
100
ITEM: NUMBER OF ATOMS
5
ITEM: BOX BOUNDS ff ff ff
-5.00000000    5.00000000     
-5.00000000    5.00000000     
-5.00000000    5.00000000     
ITEM: ATOMS id type q x y z mux muy muz
      1   1    1.0000       1.563462       4.173167      -0.983772       0.142744       0.736849       0.660816
      2   2   -1.0000      -3.108581      -2.274233       3.537635      -0.601107       0.049143       0.797657
      3   1    1.0000       0.729735      -0.410283      -3.576219      -0.378521      -0.503053       0.776956
      4   2   -1.0000      -0.459356      -2.256362       4.449215       0.706959      -0.120701      -0.696878
      5   2   -1.0000       3.818762      -4.162484       0.213637       0.966832      -0.061495       0.247898
ITEM: TIMESTEP
200
ITEM: NUMBER OF ATOMS
5
ITEM: BOX BOUNDS ff ff ff
-5.00000000    5.00000000     
-5.00000000    5.00000000     
-5.00000000    5.00000000     
ITEM: ATOMS id type q x y z mux muy muz
      1   1    1.0000       1.560701       4.157888      -0.973413       0.147267       0.722985       0.674985
      2   2   -1.0000      -3.141447      -2.255827       3.533497      -0.622541      -0.109855       0.774838
      3   1    1.0000       0.742936      -0.371688      -3.647446      -0.386062      -0.530430       0.754718
      4   2   -1.0000      -0.415365      -2.296855       4.468180       0.637649      -0.147106      -0.756151
      5   2   -1.0000       3.797198      -4.163715       0.259677       0.964790      -0.046029       0.258964
ITEM: TIMESTEP
300
ITEM: NUMBER OF ATOMS
5
ITEM: BOX BOUNDS ff ff ff
-5.00000000    5.00000000     
-5.00000000    5.00000000     
-5.00000000    5.00000000     
ITEM: ATOMS id type q x y z mux muy muz
      1   1    1.0000       1.557908       4.142536      -0.962868       0.150554       0.710413       0.687493
      2   2   -1.0000      -3.175353      -2.237253       3.527745      -0.614164      -0.278059       0.738570
      3   1    1.0000       0.756119      -0.333710      -3.718009      -0.390274      -0.554295       0.735148
      4   2   -1.0000      -0.370460      -2.337072       4.488527       0.572081      -0.167281      -0.802958
      5   2   -1.0000       3.775808      -4.164697       0.305100       0.961983      -0.035714       0.270764
ITEM: TIMESTEP
400
ITEM: NUMBER OF ATOMS
5
ITEM: BOX BOUNDS ff ff ff
-5.00000000    5.00000000     
-5.00000000    5.00000000     
-5.00000000    5.00000000     
ITEM: ATOMS id type q x y z mux muy muz
      1   1    1.0000       1.555083       4.127110      -0.952134       0.152726       0.699317       0.698305
      2   2   -1.0000      -3.210180      -2.218416       3.520557      -0.574103      -0.445562       0.686935
      3   1    1.0000       0.769277      -0.296343      -3.787905      -0.391758      -0.574241       0.718869
      4   2   -1.0000      -0.324758      -2.377104       4.510083       0.512092      -0.181742      -0.839483
      5   2   -1.0000       3.754601      -4.165443       0.349894       0.958715      -0.029571       0.282829
ITEM: TIMESTEP
500
ITEM: NUMBER OF ATOMS
5
ITEM: BOX BOUNDS ff ff ff
-5.00000000    5.00000000     
-5.00000000    5.00000000     
-5.00000000    5.00000000     
ITEM: ATOMS id type q x y z mux muy muz
      1   1    1.0000       1.552222       4.111608      -0.941205       0.153979       0.689578       0.707653
      2   2   -1.0000      -3.245821      -2.199243       3.512108      -0.502909      -0.602889       0.619361
      3   1    1.0000       0.782404      -0.259568      -3.857148      -0.391225      -0.590565       0.705816
      4   2   -1.0000      -0.278361      -2.417026       4.532680       0.458199      -0.191393      -0.867999
      5   2   -1.0000       3.733579      -4.165966       0.394060       0.955151      -0.026561       0.294925
ITEM: TIMESTEP
600
ITEM: NUMBER OF ATOMS
5
ITEM: BOX BOUNDS ff ff ff
-5.00000000    5.00000000     
-5.00000000    5.00000000     
-5.00000000    5.00000000     
ITEM: ATOMS id type q x y z mux muy muz
      1   1    1.0000       1.549323       4.096023      -0.930076       0.154509       0.680952       0.715843
      2   2   -1.0000      -3.282186      -2.179683       3.502572      -0.403042      -0.741468       0.536454
      3   1    1.0000       0.795498      -0.223365      -3.925764      -0.389300      -0.603849       0.695566
      4   2   -1.0000      -0.231353      -2.456895       4.556157       0.410266      -0.197205      -0.890389
      5   2   -1.0000       3.712740      -4.166276       0.437606       0.951370      -0.025812       0.306968
ITEM: TIMESTEP
700
ITEM: NUMBER OF ATOMS
5
ITEM: BOX BOUNDS ff ff ff
-5.00000000    5.00000000     
-5.00000000    5.00000000     
-5.00000000    5.00000000     
ITEM: ATOMS id type q x y z mux muy muz
      1   1    1.0000       1.546383       4.080351      -0.918737       0.154479       0.673183       0.723160
      2   2   -1.0000      -3.319195      -2.159705       3.492107      -0.278528      -0.853774       0.439877
      3   1    1.0000       0.808560      -0.187707      -3.993789      -0.386464      -0.614708       0.687590
      4   2   -1.0000      -0.183801      -2.496752       4.580367       0.367913      -0.200081      -0.908079
      5   2   -1.0000       3.692076      -4.166382       0.480548       0.947399      -0.026660       0.318942
ITEM: TIMESTEP
800
ITEM: NUMBER OF ATOMS
5
ITEM: BOX BOUNDS ff ff ff
-5.00000000    5.00000000     
-5.00000000    5.00000000     
-5.00000000    5.00000000     
ITEM: ATOMS id type q x y z mux muy muz
      1   1    1.0000       1.543399       4.064584      -0.907182       0.154016       0.666046       0.729837
      2   2   -1.0000      -3.356784      -2.139296       3.480858      -0.134725      -0.933513       0.332269
      3   1    1.0000       0.821590      -0.152568      -4.061265      -0.383063      -0.623687       0.681380
      4   2   -1.0000      -0.135761      -2.536625       4.605181       0.330702      -0.200827      -0.922120
      5   2   -1.0000       3.671577      -4.166291       0.522903       0.943245      -0.028626       0.330861
ITEM: TIMESTEP
900
ITEM: NUMBER OF ATOMS
5
ITEM: BOX BOUNDS ff ff ff
-5.00000000    5.00000000     
-5.00000000    5.00000000     
-5.00000000    5.00000000     
ITEM: ATOMS id type q x y z mux muy muz
      1   1    1.0000       1.540370       4.048718      -0.895402       0.153220       0.659360       0.736049
      2   2   -1.0000      -3.394898      -2.118457       3.468954       0.021897      -0.975896       0.217134
      3   1    1.0000       0.834592      -0.117923      -4.128234      -0.379337      -0.631229       0.676501
      4   2   -1.0000      -0.087275      -2.576528       4.630488       0.298180      -0.200142      -0.933291
      5   2   -1.0000       3.651233      -4.166006       0.564690       0.938905      -0.031377       0.342744
ITEM: TIMESTEP
1000
ITEM: NUMBER OF ATOMS
5
ITEM: BOX BOUNDS ff ff ff
-5.00000000    5.00000000     
-5.00000000    5.00000000     
-5.00000000    5.00000000     
ITEM: ATOMS id type q x y z mux muy muz
      1   1    1.0000       1.537293       4.032746      -0.883390       0.152166       0.652990       0.741923
      2   2   -1.0000      -3.433494      -2.097201       3.456505       0.184060      -0.977949       0.098676
      3   1    1.0000       0.847568      -0.083746      -4.194741      -0.375450      -0.637686       0.672603
      4   2   -1.0000      -0.038376      -2.616464       4.656194       0.269897      -0.198625      -0.942180
      5   2   -1.0000       3.631032      -4.165531       0.605927       0.934371      -0.034681       0.354610
ITEM: TIMESTEP
1100
ITEM: NUMBER OF ATOMS
5
ITEM: BOX BOUNDS ff ff ff
-5.00000000    5.00000000     
-5.00000000    5.00000000     
-5.00000000    5.00000000     
ITEM: ATOMS id type q x y z mux muy muz
      1   1    1.0000       1.534167       4.016664      -0.871139       0.150917       0.646836       0.747548
      2   2   -1.0000      -3.472537      -2.075549       3.443603       0.344069      -0.938763      -0.018451
      3   1    1.0000       0.860521      -0.050013      -4.260828      -0.371513      -0.643325       0.669411
      4   2   -1.0000       0.010909      -2.656429       4.682226       0.245394      -0.196775      -0.949242
      5   2   -1.0000       3.610963      -4.164868       0.646634       0.929636      -0.038383       0.366475
ITEM: TIMESTEP
1200
ITEM: NUMBER OF ATOMS
5
ITEM: BOX BOUNDS ff ff ff
-5.00000000    5.00000000     
-5.00000000    5.00000000     
-5.00000000    5.00000000     
ITEM: ATOMS id type q x y z mux muy muz
      1   1    1.0000       1.530992       4.000467      -0.858644       0.149521       0.640825       0.752985
      2   2   -1.0000      -3.512001      -2.053531       3.430324       0.494281      -0.859610      -0.129446
      3   1    1.0000       0.873454      -0.016705      -4.326534      -0.367597      -0.648352       0.666717
      4   2   -1.0000       0.060562      -2.696411       4.708525       0.224212      -0.194993      -0.954833
      5   2   -1.0000       3.591015      -4.164017       0.686824       0.924693      -0.042376       0.378349
ITEM: TIMESTEP
1300
ITEM: NUMBER OF ATOMS
5
ITEM: BOX BOUNDS ff ff ff
-5.00000000    5.00000000     
-5.00000000    5.00000000     
-5.00000000    5.00000000     
ITEM: ATOMS id type q x y z mux muy muz
      1   1    1.0000       1.527768       3.984153      -0.845900       0.148023       0.634907       0.758276
      2   2   -1.0000      -3.551866      -2.031178       3.416728       0.627589      -0.743891      -0.229692
      3   1    1.0000       0.886371       0.016198      -4.391896      -0.363749      -0.652923       0.664363
      4   2   -1.0000       0.110569      -2.736394       4.735051       0.205892      -0.193584      -0.959236
      5   2   -1.0000       3.571181      -4.162975       0.726512       0.919533      -0.046589       0.390241
ITEM: TIMESTEP
1400
ITEM: NUMBER OF ATOMS
5
ITEM: BOX BOUNDS ff ff ff
-5.00000000    5.00000000     
-5.00000000    5.00000000     
-5.00000000    5.00000000     
ITEM: ATOMS id type q x y z mux muy muz
      1   1    1.0000       1.524497       3.967718      -0.832901       0.146457       0.629043       0.763449
      2   2   -1.0000      -3.592118      -2.008525       3.402859       0.737865      -0.596898      -0.315067
      3   1    1.0000       0.899272       0.048711      -4.456945      -0.359998      -0.657154       0.662231
      4   2   -1.0000       0.160917      -2.776357       4.761776       0.189986      -0.192762      -0.962678
      5   2   -1.0000       3.551454      -4.161743       0.765707       0.914150      -0.050973       0.402159
ITEM: TIMESTEP
1500
ITEM: NUMBER OF ATOMS
5
ITEM: BOX BOUNDS ff ff ff
-5.00000000    5.00000000     
-5.00000000    5.00000000     
-5.00000000    5.00000000     
ITEM: ATOMS id type q x y z mux muy muz
      1   1    1.0000       1.521180       3.951160      -0.819647       0.144856       0.623208       0.768524
      2   2   -1.0000      -3.632748      -1.985606       3.388753       0.820317      -0.425436      -0.382210
      3   1    1.0000       0.912161       0.080847      -4.521710      -0.356362      -0.661132       0.660236
      4   2   -1.0000       0.211599      -2.816281       4.788682       0.176067      -0.192658      -0.965341
      5   2   -1.0000       3.531830      -4.160317       0.804417       0.908536      -0.055490       0.414104
ITEM: TIMESTEP
1600
ITEM: NUMBER OF ATOMS
5
ITEM: BOX BOUNDS ff ff ff
-5.00000000    5.00000000     
-5.00000000    5.00000000     
-5.00000000    5.00000000     
ITEM: ATOMS id type q x y z mux muy muz
      1   1    1.0000       1.517820       3.934478      -0.806133       0.143247       0.617379       0.773513
      2   2   -1.0000      -3.673751      -1.962452       3.374430       0.871714      -0.237332      -0.428704
      3   1    1.0000       0.925039       0.112617      -4.586212      -0.352850      -0.664918       0.658317
      4   2   -1.0000       0.262606      -2.856144       4.815764       0.163743      -0.193325      -0.967375
      5   2   -1.0000       3.512309      -4.158696       0.842646       0.902685      -0.060114       0.426082
ITEM: TIMESTEP
1700
ITEM: NUMBER OF ATOMS
5
ITEM: BOX BOUNDS ff ff ff
-5.00000000    5.00000000     
-5.00000000    5.00000000     
-5.00000000    5.00000000     
ITEM: ATOMS id type q x y z mux muy muz
      1   1    1.0000       1.514419       3.917669      -0.792360       0.141652       0.611541       0.778430
      2   2   -1.0000      -3.715123      -1.939091       3.359905       0.890482      -0.040906      -0.453176
      3   1    1.0000       0.937905       0.144028      -4.650470      -0.349468      -0.668557       0.656433
      4   2   -1.0000       0.313931      -2.895925       4.843023       0.152662      -0.194755      -0.968899
      5   2   -1.0000       3.492891      -4.156877       0.880398       0.896591      -0.064818       0.438091
ITEM: TIMESTEP
1800
ITEM: NUMBER OF ATOMS
5
ITEM: BOX BOUNDS ff ff ff
-5.00000000    5.00000000     
-5.00000000    5.00000000     
-5.00000000    5.00000000     
ITEM: ATOMS id type q x y z mux muy muz
      1   1    1.0000       1.510979       3.900731      -0.778326       0.140088       0.605676       0.783283
      2   2   -1.0000      -3.756863      -1.915549       3.345185       0.876649       0.155538      -0.455296
      3   1    1.0000       0.950759       0.175088      -4.714498      -0.346216      -0.672079       0.654557
      4   2   -1.0000       0.365567      -2.935606       4.870464       0.142521      -0.196887      -0.970012
      5   2   -1.0000       3.473581      -4.154860       0.917670       0.890248      -0.069578       0.450131
ITEM: TIMESTEP
1900
ITEM: NUMBER OF ATOMS
5
ITEM: BOX BOUNDS ff ff ff
-5.00000000    5.00000000     
-5.00000000    5.00000000     
-5.00000000    5.00000000     
ITEM: ATOMS id type q x y z mux muy muz
      1   1    1.0000       1.507504       3.883661      -0.764031       0.138566       0.599768       0.788085
      2   2   -1.0000      -3.798971      -1.891844       3.330270       0.831695       0.344152      -0.435710
      3   1    1.0000       0.963601       0.205801      -4.778306      -0.343096      -0.675502       0.652674
      4   2   -1.0000       0.417505      -2.975171       4.898099       0.133068      -0.199620      -0.970796
      5   2   -1.0000       3.454383      -4.152644       0.954463       0.883652      -0.074372       0.462200
ITEM: TIMESTEP
2000
ITEM: NUMBER OF ATOMS
5
ITEM: BOX BOUNDS ff ff ff
-5.00000000    5.00000000     
-5.00000000    5.00000000     
-5.00000000    5.00000000     
ITEM: ATOMS id type q x y z mux muy muz
      1   1    1.0000       1.503997       3.866458      -0.749475       0.137094       0.593802       0.792846
      2   2   -1.0000      -3.841446      -1.867991       3.315159       0.758314       0.517894      -0.395911
      3   1    1.0000       0.976429       0.236172      -4.841900      -0.340105      -0.678836       0.650777
      4   2   -1.0000       0.469737      -3.014607       4.925941       0.124106      -0.202826      -0.971318
      5   2   -1.0000       3.435306      -4.150228       0.990771       0.876799      -0.079173       0.474294
ITEM: TIMESTEP
2100
ITEM: NUMBER OF ATOMS
5
ITEM: BOX BOUNDS ff ff ff
-5.00000000    5.00000000     
-5.00000000    5.00000000     
-5.00000000    5.00000000     
ITEM: ATOMS id type q x y z mux muy muz
      1   1    1.0000       1.500459       3.849117      -0.734660       0.135670       0.587761       0.797578
      2   2   -1.0000      -3.884288      -1.843999       3.299846       0.660149       0.670753      -0.338073
      3   1    1.0000       0.989241       0.266202      -4.905285      -0.337241      -0.682086       0.648866
      4   2   -1.0000       0.522254      -3.053902       4.954001       0.115488      -0.206365      -0.971636
      5   2   -1.0000       3.416357      -4.147615       1.026592       0.869690      -0.083956       0.486407
ITEM: TIMESTEP
2200
ITEM: NUMBER OF ATOMS
5
ITEM: BOX BOUNDS ff ff ff
-5.00000000    5.00000000     
-5.00000000    5.00000000     
-5.00000000    5.00000000     
ITEM: ATOMS id type q x y z mux muy muz
      1   1    1.0000       1.496892       3.831635      -0.719585       0.134291       0.581625       0.802296
      2   2   -1.0000      -3.927493      -1.819872       3.284324       0.541513       0.797871      -0.264888
      3   1    1.0000       1.002034       0.295896      -4.968461      -0.334503      -0.685252       0.646945
      4   2   -1.0000       0.575044      -3.093049       4.982296       0.107114      -0.210093      -0.971796
      5   2   -1.0000       3.397546      -4.144806       1.061921       0.862322      -0.088697       0.498532
ITEM: TIMESTEP
2300
ITEM: NUMBER OF ATOMS
5
ITEM: BOX BOUNDS ff ff ff
-5.00000000    5.00000000     
-5.00000000    5.00000000     
-5.00000000    5.00000000     
ITEM: ATOMS id type q x y z mux muy muz
      1   1    1.0000       1.493297       3.814007      -0.704251       0.132947       0.575378       0.807010
      2   2   -1.0000      -3.971058      -1.795611       3.268586       0.407139       0.895574      -0.179403
      3   1    1.0000       1.014806       0.325254      -4.968524      -0.331888      -0.688330       0.645021
      4   2   -1.0000       0.628095      -3.132043       4.989200       0.098922      -0.213873      -0.971840
      5   2   -1.0000       3.378884      -4.141804       1.096753       0.854697      -0.093370       0.510662
ITEM: TIMESTEP
2400
ITEM: NUMBER OF ATOMS
5
ITEM: BOX BOUNDS ff ff ff
-5.00000000    5.00000000     
-5.00000000    5.00000000     
-5.00000000    5.00000000     
ITEM: ATOMS id type q x y z mux muy muz
      1   1    1.0000       1.489676       3.796239      -0.688665       0.131630       0.569029       0.811714
      2   2   -1.0000      -4.014960      -1.771222       3.252632       0.261990       0.961331      -0.084879
      3   1    1.0000       1.027547       0.354260      -4.905403      -0.329382      -0.691338       0.643086
      4   2   -1.0000       0.681373      -3.170861       4.960876       0.090892      -0.217598      -0.971797
      5   2   -1.0000       3.360386      -4.138612       1.131064       0.846806      -0.097965       0.522802
ITEM: TIMESTEP
2500
ITEM: NUMBER OF ATOMS
5
ITEM: BOX BOUNDS ff ff ff
-5.00000000    5.00000000     
-5.00000000    5.00000000     
-5.00000000    5.00000000     
ITEM: ATOMS id type q x y z mux muy muz
      1   1    1.0000       1.486031       3.778331      -0.672829       0.130329       0.562603       0.816390
      2   2   -1.0000      -4.059185      -1.746702       3.236457       0.111093       0.993692       0.015319
      3   1    1.0000       1.040253       0.382899      -4.842139      -0.326965      -0.694301       0.641124
      4   2   -1.0000       0.734859      -3.209494       4.932852       0.083035      -0.221193      -0.971689
      5   2   -1.0000       3.342064      -4.135230       1.164838       0.838631      -0.102475       0.534973
ITEM: TIMESTEP
2600
ITEM: NUMBER OF ATOMS
5
ITEM: BOX BOUNDS ff ff ff
-5.00000000    5.00000000     
-5.00000000    5.00000000     
-5.00000000    5.00000000     
ITEM: ATOMS id type q x y z mux muy muz
      1   1    1.0000       1.482361       3.760281      -0.656738       0.129032       0.556116       0.821027
      2   2   -1.0000      -4.103730      -1.722037       3.220052      -0.040601       0.992207       0.117796
      3   1    1.0000       1.052919       0.411163      -4.778730      -0.324624      -0.697237       0.639124
      4   2   -1.0000       0.788548      -3.247944       4.905140       0.075374      -0.224586      -0.971535
      5   2   -1.0000       3.323924      -4.131659       1.198067       0.830158      -0.106892       0.547186
ITEM: TIMESTEP
2700
ITEM: NUMBER OF ATOMS
5
ITEM: BOX BOUNDS ff ff ff
-5.00000000    5.00000000     
-5.00000000    5.00000000     
-5.00000000    5.00000000     
ITEM: ATOMS id type q x y z mux muy muz
      1   1    1.0000       1.478665       3.742086      -0.640390       0.127722       0.549580       0.825620
      2   2   -1.0000      -4.148588      -1.697215       3.203412      -0.188295       0.957340       0.219192
      3   1    1.0000       1.065544       0.439045      -4.715178      -0.322350      -0.700158       0.637078
      4   2   -1.0000       0.842432      -3.286212       4.877750       0.067942      -0.227717      -0.971354
      5   2   -1.0000       3.305970      -4.127901       1.230742       0.821374      -0.111205       0.559445
ITEM: TIMESTEP
2800
ITEM: NUMBER OF ATOMS
5
ITEM: BOX BOUNDS ff ff ff
-5.00000000    5.00000000     
-5.00000000    5.00000000     
-5.00000000    5.00000000     
ITEM: ATOMS id type q x y z mux muy muz
      1   1    1.0000       1.474940       3.723743      -0.623781       0.126380       0.543002       0.830167
      2   2   -1.0000      -4.193749      -1.672218       3.186529      -0.327405       0.890400       0.316217
      3   1    1.0000       1.078122       0.466537      -4.651484      -0.320139      -0.703070       0.634983
      4   2   -1.0000       0.896503      -3.324302       4.850689       0.060779      -0.230539      -0.971163
      5   2   -1.0000       3.288206      -4.123955       1.262855       0.812274      -0.115402       0.571746
ITEM: TIMESTEP
2900
ITEM: NUMBER OF ATOMS
5
ITEM: BOX BOUNDS ff ff ff
-5.00000000    5.00000000     
-5.00000000    5.00000000     
-5.00000000    5.00000000     
ITEM: ATOMS id type q x y z mux muy muz
      1   1    1.0000       1.471184       3.705248      -0.606907       0.124986       0.536388       0.834665
      2   2   -1.0000      -4.239199      -1.647032       3.169399      -0.453606       0.793507       0.405695
      3   1    1.0000       1.090651       0.493630      -4.587647      -0.317989      -0.705976       0.632835
      4   2   -1.0000       0.950754      -3.362219       4.823963       0.053926      -0.233016      -0.970977
      5   2   -1.0000       3.270632      -4.119824       1.294401       0.802854      -0.119473       0.584082
ITEM: TIMESTEP
3000
ITEM: NUMBER OF ATOMS
5
ITEM: BOX BOUNDS ff ff ff
-5.00000000    5.00000000     
-5.00000000    5.00000000     
-5.00000000    5.00000000     
ITEM: ATOMS id type q x y z mux muy muz
      1   1    1.0000       1.467394       3.686600      -0.589764       0.123521       0.529745       0.839114
      2   2   -1.0000      -4.284922      -1.621641       3.152018      -0.562884       0.669571       0.484600
      3   1    1.0000       1.103125       0.520320      -4.523669      -0.315900      -0.708880       0.630632
      4   2   -1.0000       1.005174      -3.399966       4.797576       0.047425      -0.235126      -0.970807
      5   2   -1.0000       3.253250      -4.115509       1.325372       0.793113      -0.123410       0.596441
ITEM: TIMESTEP
3100
ITEM: NUMBER OF ATOMS
5
ITEM: BOX BOUNDS ff ff ff
-5.00000000    5.00000000     
-5.00000000    5.00000000     
-5.00000000    5.00000000     
ITEM: ATOMS id type q x y z mux muy muz
      1   1    1.0000       1.463566       3.667796      -0.572349       0.121968       0.523081       0.843511
      2   2   -1.0000      -4.330899      -1.596030       3.134385      -0.651598       0.522297       0.550115
      3   1    1.0000       1.115542       0.546598      -4.459550      -0.313872      -0.711782       0.628371
      4   2   -1.0000       1.059755      -3.437548       4.771529       0.041313      -0.236857      -0.970666
      5   2   -1.0000       3.236058      -4.111011       1.355762       0.783053      -0.127206       0.608807
ITEM: TIMESTEP
3200
ITEM: NUMBER OF ATOMS
5
ITEM: BOX BOUNDS ff ff ff
-5.00000000    5.00000000     
-5.00000000    5.00000000     
-5.00000000    5.00000000     
ITEM: ATOMS id type q x y z mux muy muz
      1   1    1.0000       1.459695       3.648832      -0.554655       0.120311       0.516404       0.847851
      2   2   -1.0000      -4.377108      -1.570186       3.116500      -0.716583       0.356181       0.599703
      3   1    1.0000       1.127897       0.572459      -4.395293      -0.311909      -0.714685       0.626050
      4   2   -1.0000       1.114488      -3.474971       4.745822       0.035622      -0.238210      -0.970560
      5   2   -1.0000       3.219051      -4.106331       1.385569       0.772680      -0.130857       0.621162
ITEM: TIMESTEP
3300
ITEM: NUMBER OF ATOMS
5
ITEM: BOX BOUNDS ff ff ff
-5.00000000    5.00000000     
-5.00000000    5.00000000     
-5.00000000    5.00000000     
ITEM: ATOMS id type q x y z mux muy muz
      1   1    1.0000       1.455777       3.629709      -0.536678       0.118537       0.509728       0.852130
      2   2   -1.0000      -4.423527      -1.544097       3.098363      -0.755269       0.176487       0.631206
      3   1    1.0000       1.140186       0.597899      -4.330897      -0.310010      -0.717591       0.623665
      4   2   -1.0000       1.169362      -3.512239       4.720450       0.030375      -0.239193      -0.970497
      5   2   -1.0000       3.202224      -4.101468       1.414788       0.762001      -0.134361       0.633484
ITEM: TIMESTEP
3400
ITEM: NUMBER OF ATOMS
5
ITEM: BOX BOUNDS ff ff ff
-5.00000000    5.00000000     
-5.00000000    5.00000000     
-5.00000000    5.00000000     
ITEM: ATOMS id type q x y z mux muy muz
      1   1    1.0000       1.451808       3.610425      -0.518412       0.116636       0.503068       0.856340
      2   2   -1.0000      -4.470131      -1.517754       3.079978      -0.765823      -0.010823       0.642961
      3   1    1.0000       1.152406       0.622913      -4.266364      -0.308177      -0.720504       0.621210
      4   2   -1.0000       1.224370      -3.549357       4.695408       0.025587      -0.239818      -0.970481
      5   2   -1.0000       3.185569      -4.096422       1.443417       0.751026      -0.137720       0.645750
ITEM: TIMESTEP
3500
ITEM: NUMBER OF ATOMS
5
ITEM: BOX BOUNDS ff ff ff
-5.00000000    5.00000000     
-5.00000000    5.00000000     
-5.00000000    5.00000000     
ITEM: ATOMS id type q x y z mux muy muz
      1   1    1.0000       1.447782       3.590978      -0.499852       0.114605       0.496443       0.860471
      2   2   -1.0000      -4.516895      -1.491151       3.061350      -0.747304      -0.199208       0.633919
      3   1    1.0000       1.164555       0.647497      -4.201695      -0.306410      -0.723429       0.618679
      4   2   -1.0000       1.279503      -3.586329       4.670689       0.021262      -0.240107      -0.970514
      5   2   -1.0000       3.169076      -4.091191       1.471456       0.739771      -0.140937       0.657933
ITEM: TIMESTEP
3600
ITEM: NUMBER OF ATOMS
5
ITEM: BOX BOUNDS ff ff ff
-5.00000000    5.00000000     
-5.00000000    5.00000000     
-5.00000000    5.00000000     
ITEM: ATOMS id type q x y z mux muy muz
      1   1    1.0000       1.443697       3.571371      -0.480991       0.112441       0.489875       0.864511
      2   2   -1.0000      -4.563792      -1.464284       3.042486      -0.699806      -0.381752       0.603769
      3   1    1.0000       1.176631       0.671648      -4.136892      -0.304707      -0.726373       0.616065
      4   2   -1.0000       1.334754      -3.623157       4.646283       0.017392      -0.240079      -0.970598
      5   2   -1.0000       3.152734      -4.085773       1.498904       0.728251      -0.144020       0.670007
ITEM: TIMESTEP
3700
ITEM: NUMBER OF ATOMS
5
ITEM: BOX BOUNDS ff ff ff
-5.00000000    5.00000000     
-5.00000000    5.00000000     
-5.00000000    5.00000000     
ITEM: ATOMS id type q x y z mux muy muz
      1   1    1.0000       1.439546       3.551602      -0.461824       0.110151       0.483391       0.868447
      2   2   -1.0000      -4.610800      -1.437153       3.023392      -0.624566      -0.551431       0.553029
      3   1    1.0000       1.188631       0.695364      -4.071956      -0.303067      -0.729344       0.613358
      4   2   -1.0000       1.390115      -3.659845       4.622179       0.013957      -0.239757      -0.970732
      5   2   -1.0000       3.136530      -4.080164       1.525763       0.716487      -0.146978       0.681942
ITEM: TIMESTEP
3800
ITEM: NUMBER OF ATOMS
5
ITEM: BOX BOUNDS ff ff ff
-5.00000000    5.00000000     
-5.00000000    5.00000000     
-5.00000000    5.00000000     
ITEM: ATOMS id type q x y z mux muy muz
      1   1    1.0000       1.435329       3.531675      -0.442344       0.107744       0.477019       0.872264
      2   2   -1.0000      -4.657895      -1.409759       3.004078      -0.524010      -0.701441       0.483109
      3   1    1.0000       1.200557       0.718643      -4.006888      -0.301484      -0.732351       0.610548
      4   2   -1.0000       1.445581      -3.696395       4.598364       0.010923      -0.239166      -0.970917
      5   2   -1.0000       3.120450      -4.074360       1.552034       0.704502      -0.149822       0.693708
ITEM: TIMESTEP
3900
ITEM: NUMBER OF ATOMS
5
ITEM: BOX BOUNDS ff ff ff
-5.00000000    5.00000000     
-5.00000000    5.00000000     
-5.00000000    5.00000000     
ITEM: ATOMS id type q x y z mux muy muz