ITEM: TIMESTEP
0
ITEM: NUMBER OF ATOMS
5
ITEM: BOX BOUNDS ff ff ff
-5.00000000    5.00000000     
-5.00000000    5.00000000     
-5.00000000    5.00000000     
ITEM: ATOMS id type q x y z mux muy muz
      1   1    1.0000      -2.793775      -2.647813      -0.692852      -0.176167      -0.614995       0.768600
      2   2   -1.0000       4.281285       0.217394      -3.079330       0.385727      -0.500018      -0.775369
      3   1    1.0000      -2.338635      -1.159734       1.232882      -0.233100      -0.921725      -0.309979
      4   2   -1.0000      -0.600061      -1.075903       0.647340      -0.413508       0.034860       0.909833
      5   2   -1.0000      -2.581343      -4.210762      -4.755625      -0.304941      -0.493164      -0.814739
ITEM: TIMESTEP
100
ITEM: NUMBER OF ATOMS
5
ITEM: BOX BOUNDS ff ff ff
-5.00000000    5.00000000     
-5.00000000    5.00000000     
-5.00000000    5.00000000     
ITEM: ATOMS id type q x y z mux muy muz
      1   1    1.0000      -2.817219      -2.600321      -0.721531      -0.273581      -0.771676       0.574169
      2   2   -1.0000       4.264634       0.172066      -3.110024       0.391261      -0.479606      -0.785425
      3   1    1.0000      -2.288660      -1.146955       1.262185      -0.240417      -0.912406      -0.331232
      4   2   -1.0000      -0.640476      -1.111258       0.653911      -0.402700       0.045958       0.914178
      5   2   -1.0000      -2.550808      -4.190350      -4.732125      -0.313498      -0.492785      -0.811716
ITEM: TIMESTEP
200
ITEM: NUMBER OF ATOMS
5
ITEM: BOX BOUNDS ff ff ff
-5.00000000    5.00000000     
-5.00000000    5.00000000     
-5.00000000    5.00000000     
ITEM: ATOMS id type q x y z mux muy muz
      1   1    1.0000      -2.840255      -2.555294      -0.752355      -0.341040      -0.881007       0.327900
      2   2   -1.0000       4.248447       0.127569      -3.140250       0.394069      -0.464690      -0.792952
      3   1    1.0000      -2.237144      -1.132461       1.290604      -0.240675      -0.901690      -0.359209
      4   2   -1.0000      -0.682394      -1.146240       0.662783      -0.368766       0.075575       0.926445
      5   2   -1.0000      -2.521183      -4.170392      -4.708367      -0.316808      -0.490834      -0.811612
ITEM: TIMESTEP
300
ITEM: NUMBER OF ATOMS
5
ITEM: BOX BOUNDS ff ff ff
-5.00000000    5.00000000     
-5.00000000    5.00000000     
-5.00000000    5.00000000     
ITEM: ATOMS id type q x y z mux muy muz
      1   1    1.0000      -2.862892      -2.512218      -0.784787      -0.371278      -0.927179       0.049923
      2   2   -1.0000       4.232695       0.083841      -3.170044       0.394890      -0.454126      -0.798644
      3   1    1.0000      -2.184093      -1.116988       1.317157      -0.236261      -0.888223      -0.394006
      4   2   -1.0000      -0.725767      -1.180628       0.674323      -0.313027       0.119974       0.942136
      5   2   -1.0000      -2.492473      -4.150825      -4.684234      -0.315803      -0.487729      -0.813873
ITEM: TIMESTEP
400
ITEM: NUMBER OF ATOMS
5
ITEM: BOX BOUNDS ff ff ff
-5.00000000    5.00000000     
-5.00000000    5.00000000     
-5.00000000    5.00000000     
ITEM: ATOMS id type q x y z mux muy muz
      1   1    1.0000      -2.885052      -2.470608      -0.818383      -0.361143      -0.902708      -0.233867
      2   2   -1.0000       4.217340       0.040807      -3.199453       0.394307      -0.446849      -0.803024
      3   1    1.0000      -2.129486      -1.101304       1.340747      -0.229204      -0.870500      -0.435541
      4   2   -1.0000      -0.770661      -1.214156       0.689103      -0.233782       0.176473       0.956140
      5   2   -1.0000      -2.464671      -4.131557      -4.659599      -0.311182      -0.483819      -0.817976
ITEM: TIMESTEP
500
ITEM: NUMBER OF ATOMS
5
ITEM: BOX BOUNDS ff ff ff
-5.00000000    5.00000000     
-5.00000000    5.00000000     
-5.00000000    5.00000000     
ITEM: ATOMS id type q x y z mux muy muz
      1   1    1.0000      -2.906583      -2.430092      -0.852789      -0.312454      -0.810229      -0.495885
      2   2   -1.0000       4.202349      -0.001577      -3.228496       0.392752      -0.442009      -0.806457
      3   1    1.0000      -2.073222      -1.086244       1.360051      -0.221023      -0.846980      -0.483501
      4   2   -1.0000      -0.817286      -1.246412       0.708010      -0.126672       0.242498       0.961847
      5   2   -1.0000      -2.437787      -4.112493      -4.634361      -0.303457      -0.479425      -0.823447
ITEM: TIMESTEP
600
ITEM: NUMBER OF ATOMS
5
ITEM: BOX BOUNDS ff ff ff
-5.00000000    5.00000000     
-5.00000000    5.00000000     
-5.00000000    5.00000000     
ITEM: ATOMS id type q x y z mux muy muz
      1   1    1.0000      -2.927259      -2.390506      -0.887677      -0.232160      -0.662820      -0.711878
      2   2   -1.0000       4.187724      -0.043245      -3.257117       0.390557      -0.438964      -0.809182
      3   1    1.0000      -2.015015      -1.072818       1.373268      -0.212383      -0.816178      -0.537352
      4   2   -1.0000      -0.866088      -1.276677       0.732443       0.014604       0.314005       0.949309
      5   2   -1.0000      -2.411892      -4.093574      -4.608502      -0.293050      -0.474862      -0.829836
ITEM: TIMESTEP
700
ITEM: NUMBER OF ATOMS
5
ITEM: BOX BOUNDS ff ff ff
-5.00000000    5.00000000     
-5.00000000    5.00000000     
-5.00000000    5.00000000     
ITEM: ATOMS id type q x y z mux muy muz
      1   1    1.0000      -2.946744      -2.352055      -0.922588      -0.131648      -0.482531      -0.865929
      2   2   -1.0000       4.173556      -0.083856      -3.285065       0.387994      -0.437233      -0.811350
      3   1    1.0000      -1.954161      -1.062450       1.377671      -0.202261      -0.776851      -0.596316
      4   2   -1.0000      -0.917975      -1.303600       0.764603       0.196050       0.382815       0.902783
      5   2   -1.0000      -2.387205      -4.074857      -4.582206      -0.280427      -0.470460      -0.836677
ITEM: TIMESTEP
800
ITEM: NUMBER OF ATOMS
5
ITEM: BOX BOUNDS ff ff ff
-5.00000000    5.00000000     
-5.00000000    5.00000000     
-5.00000000    5.00000000     
ITEM: ATOMS id type q x y z mux muy muz
      1   1    1.0000      -2.964474      -2.315662      -0.956572      -0.025235      -0.297058      -0.954526
      2   2   -1.0000       4.160154      -0.122434      -3.311646       0.385324      -0.436444      -0.813045
      3   1    1.0000      -1.889041      -1.057508       1.368883      -0.185940      -0.728626      -0.659189
      4   2   -1.0000      -0.974862      -1.324508       0.807876       0.417604       0.432546       0.799068
      5   2   -1.0000      -2.364307      -4.056707      -4.556124      -0.266253      -0.466567      -0.843460
ITEM: TIMESTEP
900
ITEM: NUMBER OF ATOMS
5
ITEM: BOX BOUNDS ff ff ff
-5.00000000    5.00000000     
-5.00000000    5.00000000     
-5.00000000    5.00000000     
ITEM: ATOMS id type q x y z mux muy muz
      1   1    1.0000      -2.979454      -2.283495      -0.987603       0.072212      -0.134273      -0.988310
      2   2   -1.0000       4.148253      -0.156760      -3.335308       0.382824      -0.436276      -0.814315
      3   1    1.0000      -1.843050      -1.053531       1.357192      -0.150073      -0.673814      -0.723500
      4   2   -1.0000      -1.013824      -1.342924       0.849975       0.660966       0.434458       0.611858
      5   2   -1.0000      -2.344455      -4.040109      -4.531841      -0.251530      -0.463515      -0.849639
ITEM: TIMESTEP
1000
ITEM: NUMBER OF ATOMS
5
ITEM: BOX BOUNDS ff ff ff
-5.00000000    5.00000000     
-5.00000000    5.00000000     
-5.00000000    5.00000000     
ITEM: ATOMS id type q x y z mux muy muz
      1   1    1.0000      -3.000220      -2.237215      -1.033756       0.149798      -0.013310      -0.988627
      2   2   -1.0000       4.130959      -0.206623      -3.369662       0.380743      -0.436449      -0.815198
      3   1    1.0000      -1.870991      -1.021187       1.384557      -0.071585      -0.622719      -0.779164
      4   2   -1.0000      -0.976003      -1.396472       0.866447       0.864289       0.360432       0.350847
      5   2   -1.0000      -2.316275      -4.015322      -4.495171      -0.237426      -0.461536      -0.854759
ITEM: TIMESTEP
1100
ITEM: NUMBER OF ATOMS
5
ITEM: BOX BOUNDS ff ff ff
-5.00000000    5.00000000     
-5.00000000    5.00000000     
-5.00000000    5.00000000     
ITEM: ATOMS id type q x y z mux muy muz
      1   1    1.0000      -3.017325      -2.198021      -1.074235       0.209837       0.070411      -0.975198
      2   2   -1.0000       4.116097      -0.249381      -3.399090       0.379050      -0.436779      -0.815810
      3   1    1.0000      -1.885803      -1.000674       1.401010       0.056990      -0.583714      -0.809957
      4   2   -1.0000      -0.952897      -1.435270       0.887392       0.972286       0.221050       0.076139
      5   2   -1.0000      -2.292602      -3.993472      -4.462662      -0.223701      -0.460548      -0.858984
ITEM: TIMESTEP
1200
ITEM: NUMBER OF ATOMS
5
ITEM: BOX BOUNDS ff ff ff
-5.00000000    5.00000000     
-5.00000000    5.00000000     
-5.00000000    5.00000000     
ITEM: ATOMS id type q x y z mux muy muz
      1   1    1.0000      -3.037010      -2.151933      -1.123766       0.258290       0.128686      -0.957458
      2   2   -1.0000       4.098290      -0.300441      -3.434181       0.377632      -0.437163      -0.816262
      3   1    1.0000      -1.859055      -0.998851       1.400315       0.235080      -0.553218      -0.799179
      4   2   -1.0000      -0.969844      -1.458989       0.932615       0.984718       0.039611      -0.169590
      5   2   -1.0000      -2.264911      -3.966604      -4.422569      -0.209429      -0.460405      -0.862651
ITEM: TIMESTEP
1300
ITEM: NUMBER OF ATOMS
5
ITEM: BOX BOUNDS ff ff ff
-5.00000000    5.00000000     
-5.00000000    5.00000000     
-5.00000000    5.00000000     
ITEM: ATOMS id type q x y z mux muy muz
      1   1    1.0000      -3.053697      -2.112359      -1.168228       0.296748       0.167602      -0.940133
      2   2   -1.0000       4.082657      -0.345077      -3.464799       0.376480      -0.437516      -0.816604
      3   1    1.0000      -1.807385      -1.013292       1.393544       0.450770      -0.524489      -0.722300
      4   2   -1.0000      -1.012906      -1.463705       0.978301       0.921956      -0.162206      -0.351691
      5   2   -1.0000      -2.241199      -3.942386      -4.386403      -0.194473      -0.461049      -0.865803
ITEM: TIMESTEP
1400
ITEM: NUMBER OF ATOMS
5
ITEM: BOX BOUNDS ff ff ff
-5.00000000    5.00000000     
-5.00000000    5.00000000     
-5.00000000    5.00000000     
ITEM: ATOMS id type q x y z mux muy muz
      1   1    1.0000      -3.071362      -2.070190      -1.217974       0.325709       0.191308      -0.925913
      2   2   -1.0000       4.065576      -0.393616      -3.498021       0.375591      -0.437783      -0.816870
      3   1    1.0000      -1.813603      -0.995744       1.432681       0.661065      -0.488451      -0.569569
      4   2   -1.0000      -0.997170      -1.502091       0.981529       0.817237      -0.358289      -0.451390
      5   2   -1.0000      -2.215970      -3.915178      -4.345800      -0.179195      -0.462382      -0.868385
ITEM: TIMESTEP
1500
ITEM: NUMBER OF ATOMS
5
ITEM: BOX BOUNDS ff ff ff
-5.00000000    5.00000000     
-5.00000000    5.00000000     
-5.00000000    5.00000000     
ITEM: ATOMS id type q x y z mux muy muz
      1   1    1.0000      -3.086455      -2.033968      -1.262933       0.348840       0.204860      -0.914518
      2   2   -1.0000       4.050503      -0.436250      -3.527133       0.374828      -0.438002      -0.817103
      3   1    1.0000      -1.815647      -0.985150       1.471378       0.814595      -0.438752      -0.379384
      4   2   -1.0000      -0.986597      -1.531004       0.980073       0.696294      -0.523697      -0.490832
      5   2   -1.0000      -2.194334      -3.890446      -4.308970      -0.162764      -0.464413      -0.870534
ITEM: TIMESTEP
1600
ITEM: NUMBER OF ATOMS
5
ITEM: BOX BOUNDS ff ff ff
-5.00000000    5.00000000     
-5.00000000    5.00000000     
-5.00000000    5.00000000     
ITEM: ATOMS id type q x y z mux muy muz
      1   1    1.0000      -3.103848      -1.991948      -1.317749       0.371570       0.212415      -0.903779
      2   2   -1.0000       4.032540      -0.486866      -3.561625       0.373973      -0.438255      -0.817359
      3   1    1.0000      -1.769879      -1.005064       1.488820       0.907587      -0.377064      -0.184688
      4   2   -1.0000      -1.022054      -1.532878       1.006839       0.562341      -0.658352      -0.500345
      5   2   -1.0000      -2.169288      -3.860063      -4.263870      -0.142230      -0.467470      -0.872492
ITEM: TIMESTEP
1700
ITEM: NUMBER OF ATOMS
5
ITEM: BOX BOUNDS ff ff ff
-5.00000000    5.00000000     
-5.00000000    5.00000000     
-5.00000000    5.00000000     
ITEM: ATOMS id type q x y z mux muy muz
      1   1    1.0000      -3.118589      -1.956026      -1.366980       0.399617       0.215522      -0.890986
      2   2   -1.0000       4.016757      -0.531202      -3.591781       0.372755      -0.438641      -0.817709
      3   1    1.0000      -1.752419      -1.005747       1.511141       0.949469      -0.313264      -0.019358
      4   2   -1.0000      -1.030340      -1.551327       1.023201       0.409301      -0.761163      -0.503093
      5   2   -1.0000      -2.147938      -3.832517      -4.223165      -0.112456      -0.472285      -0.874243
ITEM: TIMESTEP
1800
ITEM: NUMBER OF ATOMS
5
ITEM: BOX BOUNDS ff ff ff
-5.00000000    5.00000000     
-5.00000000    5.00000000     
-5.00000000    5.00000000     
ITEM: ATOMS id type q x y z mux muy muz
      1   1    1.0000      -3.132862      -1.920804      -1.417926       0.444403       0.212989      -0.870139
      2   2   -1.0000       4.000802      -0.575908      -3.622142       0.370587      -0.439401      -0.818286
      3   1    1.0000      -1.768943      -0.980343       1.543591       0.961857      -0.255746       0.097089
      4   2   -1.0000      -1.004446      -1.596087       1.029701       0.213097      -0.830199      -0.515131
      5   2   -1.0000      -2.127079      -3.803676      -4.180809      -0.060581      -0.480513      -0.874893
ITEM: TIMESTEP
1900
ITEM: NUMBER OF ATOMS
5
ITEM: BOX BOUNDS ff ff ff
-5.00000000    5.00000000     
-5.00000000    5.00000000     
-5.00000000    5.00000000     
ITEM: ATOMS id type q x y z mux muy muz
      1   1    1.0000      -3.147470      -1.884180      -1.473900       0.514763       0.199934      -0.833694
      2   2   -1.0000       3.983677      -0.623800      -3.654638       0.366945      -0.440823      -0.819162
      3   1    1.0000      -1.756261      -0.975010       1.548455       0.965270      -0.218513       0.143198
      4   2   -1.0000      -1.007010      -1.622236       1.066533      -0.013396      -0.844447      -0.535472
      5   2   -1.0000      -2.105466      -3.771592      -4.134036       0.024314      -0.492080      -0.870210
ITEM: TIMESTEP
2000
ITEM: NUMBER OF ATOMS
5
ITEM: BOX BOUNDS ff ff ff
-5.00000000    5.00000000     
-5.00000000    5.00000000     
-5.00000000    5.00000000     
ITEM: ATOMS id type q x y z mux muy muz
      1   1    1.0000      -3.160712      -1.850418      -1.528674       0.612548       0.169655      -0.772012
      2   2   -1.0000       3.967328      -0.669443      -3.685596       0.361643      -0.443073      -0.820305
      3   1    1.0000      -1.719054      -0.985354       1.532771       0.970789      -0.217916       0.100404
      4   2   -1.0000      -1.034513      -1.631820       1.121983      -0.204384      -0.800531      -0.563363
      5   2   -1.0000      -2.085579      -3.739784      -4.088068       0.144916      -0.503397      -0.851816
ITEM: TIMESTEP
2100
ITEM: NUMBER OF ATOMS
5
ITEM: BOX BOUNDS ff ff ff
-5.00000000    5.00000000     
-5.00000000    5.00000000     
-5.00000000    5.00000000     
ITEM: ATOMS id type q x y z mux muy muz
      1   1    1.0000      -3.172779      -1.819223      -1.582922       0.730840       0.114927      -0.672804
      2   2   -1.0000       3.951575      -0.713318      -3.715347       0.354873      -0.446117      -0.821611
      3   1    1.0000      -1.709178      -0.958852       1.536262       0.963977      -0.264434      -0.028683
      4   2   -1.0000      -1.034981      -1.677573       1.156810      -0.271975      -0.747097      -0.606528
      5   2   -1.0000      -2.067166      -3.707852      -4.042388       0.293822      -0.508080      -0.809644
ITEM: TIMESTEP
2200
ITEM: NUMBER OF ATOMS
5
ITEM: BOX BOUNDS ff ff ff
-5.00000000    5.00000000     
-5.00000000    5.00000000     
-5.00000000    5.00000000     
ITEM: ATOMS id type q x y z mux muy muz
      1   1    1.0000      -3.183188      -1.792171      -1.634016       0.837782       0.040639      -0.544491
      2   2   -1.0000       3.937192      -0.753239      -3.742407       0.348085      -0.449299      -0.822780
      3   1    1.0000      -1.701380      -0.923069       1.549888       0.920402      -0.346628      -0.180857
      4   2   -1.0000      -1.034108      -1.730967       1.178206      -0.184410      -0.740941      -0.645755
      5   2   -1.0000      -2.051046      -3.677372      -3.999255       0.435255      -0.501787      -0.747505
ITEM: TIMESTEP
2300
ITEM: NUMBER OF ATOMS
5
ITEM: BOX BOUNDS ff ff ff
-5.00000000    5.00000000     
-5.00000000    5.00000000     
-5.00000000    5.00000000     
ITEM: ATOMS id type q x y z mux muy muz
      1   1    1.0000      -3.193945      -1.764408      -1.691399       0.909691      -0.039080      -0.413443
      2   2   -1.0000       3.921550      -0.796473      -3.771686       0.342515      -0.451985      -0.823646
      3   1    1.0000      -1.657452      -0.918677       1.557222       0.844086      -0.447564      -0.295304
      4   2   -1.0000      -1.068481      -1.754527       1.209000       0.007331      -0.769354      -0.638781
      5   2   -1.0000      -2.034202      -3.642734      -3.950722       0.543340      -0.488785      -0.682547
ITEM: TIMESTEP
2400
ITEM: NUMBER OF ATOMS
5
ITEM: BOX BOUNDS ff ff ff
-5.00000000    5.00000000     
-5.00000000    5.00000000     
-5.00000000    5.00000000     
ITEM: ATOMS id type q x y z mux muy muz
      1   1    1.0000      -3.203214      -1.740957      -1.744817       0.947732      -0.115756      -0.297329
      2   2   -1.0000       3.907452      -0.835248      -3.797901       0.338315      -0.454008      -0.824269
      3   1    1.0000      -1.602548      -0.933421       1.567022       0.742344      -0.568510      -0.354574
      4   2   -1.0000      -1.114624      -1.757056       1.233549       0.239951      -0.796025      -0.555669
      5   2   -1.0000      -2.019596      -3.610136      -3.905438       0.618708      -0.474899      -0.625837
ITEM: TIMESTEP
2500
ITEM: NUMBER OF ATOMS
5
ITEM: BOX BOUNDS ff ff ff
-5.00000000    5.00000000     
-5.00000000    5.00000000     
-5.00000000    5.00000000     
ITEM: ATOMS id type q x y z mux muy muz
      1   1    1.0000      -3.212592      -1.717905      -1.803125       0.961208      -0.186043      -0.203636
      2   2   -1.0000       3.892553      -0.876022      -3.825400       0.335258      -0.455395      -0.824753
      3   1    1.0000      -1.573588      -0.909182       1.606153       0.608869      -0.703557      -0.366452
      4   2   -1.0000      -1.134157      -1.799548       1.230620       0.439607      -0.799133      -0.410039
      5   2   -1.0000      -2.004746      -3.574162      -3.855834       0.668961      -0.463369      -0.581189
ITEM: TIMESTEP
2600
ITEM: NUMBER OF ATOMS
5
ITEM: BOX BOUNDS ff ff ff
-5.00000000    5.00000000     
-5.00000000    5.00000000     
-5.00000000    5.00000000     
ITEM: ATOMS id type q x y z mux muy muz
      1   1    1.0000      -3.221022      -1.697767      -1.860104       0.958675      -0.254801      -0.126566
      2   2   -1.0000       3.878448      -0.914454      -3.851246       0.332843      -0.456345      -0.825206
      3   1    1.0000      -1.548872      -0.900880       1.641550       0.437004      -0.826280      -0.355371
      4   2   -1.0000      -1.149829      -1.825133       1.229325       0.568134      -0.782884      -0.253609
      5   2   -1.0000      -1.991254      -3.538583      -3.807110       0.704138      -0.454526      -0.545524
ITEM: TIMESTEP
2700
ITEM: NUMBER OF ATOMS
5
ITEM: BOX BOUNDS ff ff ff
-5.00000000    5.00000000     
-5.00000000    5.00000000     
-5.00000000    5.00000000     
ITEM: ATOMS id type q x y z mux muy muz
      1   1    1.0000      -3.229697      -1.677524      -1.924758       0.941793      -0.331488      -0.056050
      2   2   -1.0000       3.862937      -0.956571      -3.879490       0.330594      -0.457039      -0.825726
      3   1    1.0000      -1.513072      -0.932278       1.659508       0.224397      -0.913146      -0.340308
      4   2   -1.0000      -1.175617      -1.812750       1.248636       0.629477      -0.766664      -0.126433
      5   2   -1.0000      -1.977080      -3.497696      -3.751480       0.731557      -0.447685      -0.514201
ITEM: TIMESTEP
2800
ITEM: NUMBER OF ATOMS
5
ITEM: BOX BOUNDS ff ff ff
-5.00000000    5.00000000     
-5.00000000    5.00000000     
-5.00000000    5.00000000     
ITEM: ATOMS id type q x y z mux muy muz
      1   1    1.0000      -3.237353      -1.659902      -1.989140       0.904979      -0.425201       0.014758
      2   2   -1.0000       3.847980      -0.997078      -3.906585       0.328201      -0.457555      -0.826394
      3   1    1.0000      -1.496156      -0.932733       1.680617      -0.013964      -0.940630      -0.339147
      4   2   -1.0000      -1.182862      -1.830649       1.263251       0.630277      -0.773403      -0.067818
      5   2   -1.0000      -1.964138      -3.456456      -3.695729       0.754476      -0.442600      -0.484635
ITEM: TIMESTEP
2900
ITEM: NUMBER OF ATOMS
5
ITEM: BOX BOUNDS ff ff ff
-5.00000000    5.00000000     
-5.00000000    5.00000000     
-5.00000000    5.00000000     
ITEM: ATOMS id type q x y z mux muy muz
      1   1    1.0000      -3.243865      -1.644890      -2.053835       0.836836      -0.540449       0.087298
      2   2   -1.0000       3.833485      -1.036265      -3.932735       0.325536      -0.457918      -0.827247
      3   1    1.0000      -1.488777      -0.910782       1.699863      -0.227256      -0.904488      -0.360909
      4   2   -1.0000      -1.180888      -1.870410       1.278464       0.583492      -0.806634      -0.094230
      5   2   -1.0000      -1.952485      -3.414471      -3.639342       0.773327      -0.439605      -0.456850
ITEM: TIMESTEP
3000
ITEM: NUMBER OF ATOMS
5
ITEM: BOX BOUNDS ff ff ff
-5.00000000    5.00000000     
-5.00000000    5.00000000     
-5.00000000    5.00000000     
ITEM: ATOMS id type q x y z mux muy muz
      1   1    1.0000      -3.249410      -1.631685      -2.123563       0.725433      -0.670466       0.155637
      2   2   -1.0000       3.818465      -1.076813      -3.959744       0.322693      -0.458127      -0.828244
      3   1    1.0000      -1.464686      -0.921652       1.697566      -0.356165      -0.843652      -0.401742
      4   2   -1.0000      -1.195317      -1.878004       1.316362       0.504697      -0.843770      -0.182573
      5   2   -1.0000      -1.941582      -3.368666      -3.578206       0.786985      -0.439247      -0.433262
ITEM: TIMESTEP
3100
ITEM: NUMBER OF ATOMS
5
ITEM: BOX BOUNDS ff ff ff
-5.00000000    5.00000000     
-5.00000000    5.00000000     
-5.00000000    5.00000000     
ITEM: ATOMS id type q x y z mux muy muz
      1   1    1.0000      -3.252941      -1.622251      -2.188949       0.562055      -0.799946       0.210189
      2   2   -1.0000       3.804998      -1.113135      -3.983898       0.319843      -0.458170      -0.829325
      3   1    1.0000      -1.430478      -0.937201       1.691219      -0.363834      -0.814790      -0.451377
      4   2   -1.0000      -1.220864      -1.879015       1.354604       0.408191      -0.864433      -0.293488
      5   2   -1.0000      -1.933244      -3.325217      -3.520561       0.794802      -0.441646      -0.416219
ITEM: TIMESTEP
3200
ITEM: NUMBER OF ATOMS
5
ITEM: BOX BOUNDS ff ff ff
-5.00000000    5.00000000     
-5.00000000    5.00000000     
-5.00000000    5.00000000     
ITEM: ATOMS id type q x y z mux muy muz
      1   1    1.0000      -3.254480      -1.615715      -2.256374       0.360829      -0.901839       0.237676
      2   2   -1.0000       3.791788      -1.148735      -4.007531       0.317299      -0.458041      -0.830373
      3   1    1.0000      -1.393572      -0.913551       1.704012      -0.253769      -0.840519      -0.478675
      4   2   -1.0000      -1.249233      -1.918908       1.373107       0.313670      -0.871333      -0.377345
      5   2   -1.0000      -1.927033      -3.279910      -3.460799       0.796765      -0.446050      -0.407682
ITEM: TIMESTEP
3300
ITEM: NUMBER OF ATOMS
5
ITEM: BOX BOUNDS ff ff ff
-5.00000000    5.00000000     
-5.00000000    5.00000000     
-5.00000000    5.00000000     
ITEM: ATOMS id type q x y z mux muy muz
      1   1    1.0000      -3.253474      -1.612584      -2.320880       0.154427      -0.960274       0.232435
      2   2   -1.0000       3.779811      -1.181010      -4.028920       0.315215      -0.457776      -0.831312
      3   1    1.0000      -1.351867      -0.912117       1.717460      -0.090843      -0.884577      -0.457462
      4   2   -1.0000      -1.283127      -1.935074       1.388056       0.226693      -0.882522      -0.412026
      5   2   -1.0000      -1.923872      -3.236034      -3.403302       0.794321      -0.451100      -0.406894
ITEM: TIMESTEP
3400
ITEM: NUMBER OF ATOMS
5
ITEM: BOX BOUNDS ff ff ff
-5.00000000    5.00000000     
-5.00000000    5.00000000     
-5.00000000    5.00000000     
ITEM: ATOMS id type q x y z mux muy muz
      1   1    1.0000      -3.249358      -1.612586      -2.387024      -0.041478      -0.979602       0.196622
      2   2   -1.0000       3.768189      -1.212351      -4.049648       0.313431      -0.457399      -0.832194
      3   1    1.0000      -1.308927      -0.944258       1.728392       0.065530      -0.918275      -0.390484
      4   2   -1.0000      -1.318407      -1.917241       1.404692       0.132830      -0.904891      -0.404386
      5   2   -1.0000      -1.924027      -3.190383      -3.343997       0.789266      -0.455838      -0.411425
ITEM: TIMESTEP
3500
ITEM: NUMBER OF ATOMS
5
ITEM: BOX BOUNDS ff ff ff
-5.00000000    5.00000000     
-5.00000000    5.00000000     
-5.00000000    5.00000000     
ITEM: ATOMS id type q x y z mux muy muz
      1   1    1.0000      -3.241528      -1.615750      -2.453774      -0.220913      -0.966341       0.131843
      2   2   -1.0000       3.757075      -1.242386      -4.069475       0.311757      -0.456919      -0.833087
      3   1    1.0000      -1.273830      -0.946944       1.754534       0.168454      -0.938357      -0.301843
      4   2   -1.0000      -1.346102      -1.928272       1.404934       0.014213      -0.929607      -0.368278
      5   2   -1.0000      -1.928145      -3.143466      -3.283803       0.783131      -0.459537      -0.418965
ITEM: TIMESTEP
3600
ITEM: NUMBER OF ATOMS
5
ITEM: BOX BOUNDS ff ff ff
-5.00000000    5.00000000     
-5.00000000    5.00000000     
-5.00000000    5.00000000     
ITEM: ATOMS id type q x y z mux muy muz
      1   1    1.0000      -3.229211      -1.622115      -2.521239      -0.378434      -0.924848       0.038005
      2   2   -1.0000       3.746396      -1.271355      -4.088570       0.310047      -0.456370      -0.834024
      3   1    1.0000      -1.249997      -0.942027       1.782326       0.197045      -0.953359      -0.228650
      4   2   -1.0000      -1.362762      -1.946416       1.402538      -0.125530      -0.937201      -0.325419
      5   2   -1.0000      -1.936955      -3.094905      -3.222640       0.777574      -0.461519      -0.427059
ITEM: TIMESTEP
3700
ITEM: NUMBER OF ATOMS
5
ITEM: BOX BOUNDS ff ff ff
-5.00000000    5.00000000     
-5.00000000    5.00000000     
-5.00000000    5.00000000     
ITEM: ATOMS id type q x y z mux muy muz
      1   1    1.0000      -3.210494      -1.632316      -2.594016      -0.502286      -0.860724      -0.082843
      2   2   -1.0000       3.735361      -1.301440      -4.108387       0.308264      -0.455820      -0.834986
      3   1    1.0000      -1.237335      -0.969402       1.793981       0.158476      -0.967379      -0.197646
      4   2   -1.0000      -1.367960      -1.932763       1.417214      -0.259758      -0.918963      -0.296702
      5   2   -1.0000      -1.952101      -3.040897      -3.156376       0.774694      -0.461186      -0.432617
ITEM: TIMESTEP
3800
ITEM: NUMBER OF ATOMS
5
ITEM: BOX BOUNDS ff ff ff
-5.00000000    5.00000000     
-5.00000000    5.00000000     
-5.00000000    5.00000000     
ITEM: ATOMS id type q x y z mux muy muz
      1   1    1.0000      -3.186603      -1.645279      -2.662899      -0.577421      -0.785169      -0.223821
      2   2   -1.0000       3.725252      -1.329166      -4.126654       0.306479      -0.455333      -0.835908
      3   1    1.0000      -1.228589      -0.982629       1.801664       0.071684      -0.973300      -0.218056
      4   2   -1.0000      -1.369819      -1.932150       1.433762      -0.357241      -0.885581      -0.296861
      5   2   -1.0000      -1.972771      -2.987595      -3.093458       0.776646      -0.458356      -0.432124
ITEM: TIMESTEP
3900
ITEM: NUMBER OF ATOMS
5
ITEM: BOX BOUNDS ff ff ff
-5.00000000    5.00000000     
-5.00000000    5.00000000     
-5.00000000    5.00000000     
ITEM: ATOMS id type q x y z mux muy muz