LAMMPS data file. Step 4999

5 atoms
2 atom types

-5.00000000     5.00000000      xlo xhi
-5.00000000     5.00000000      ylo yhi
-5.00000000     5.00000000      zlo zhi

Masses

1 1.00000000     
2 1.00000000     

Atoms # hybrid

      1   2   -3.411786365993    1.517302257702    2.024101121706  1.00000000  1.90985932 -1.00000000   -0.600712207000    0.194332939052   -0.775486655695   0   0   0
      2   1    3.037494923917    0.053997831186    4.657302822808  1.00000000  1.90985932  1.00000000   -0.051350984698   -0.362512998535    0.930562949114   0   0   0
      3   2   -3.701323593481    0.502914671621   -3.085211820018  1.00000000  1.90985932 -1.00000000   -0.636690027121    0.770712363544    0.025065155992   0   0   0
      4   1    0.984631975613   -2.066621752267    2.380246900371  1.00000000  1.90985932  1.00000000   -0.948952402260   -0.076648318768   -0.305964660500   0   0   0
      5   1    2.646549225725   -3.138100612368   -3.030071906074  1.00000000  1.90985932  1.00000000   -0.582529585983    0.111036088140   -0.805189585492   0   0   0

Velocities

      1    0.148462862556   -0.001060297303   -0.001682623396    0.152339846951    0.163770423953g   -0.076966402221
      2   -0.484722182931    0.459206092044   -0.236638904770    0.425181026255    3.023996462615g    1.201500114162
      3    0.201841824301   -0.151386310339    0.231934697525    0.072299488913    0.056051642039g    0.113012264582
      4   -0.721882903165   -0.391394658487    0.024477103244    0.094902711295   -0.159034395442g   -0.254501407779
      5   -0.179841379636    0.084635174086    0.396380481576    0.043290400240   -0.048112466202g   -0.037953991852
