LAMMPS data file. Step 0

5 atoms
2 atom types

-5.00000000     5.00000000      xlo xhi
-5.00000000     5.00000000      ylo yhi
-5.00000000     5.00000000      zlo zhi

Masses

1 1.00000000     
2 1.00000000     

Atoms # hybrid

      1   2   -1.254598811526    4.507143064099    2.319939418114  1.00000000  1.90985932 -1.00000000   -0.426455601666   -0.845200842419    0.322135306638   0   0   0
      2   2    0.986584841970   -3.439813595576   -3.440054796638  1.00000000  1.90985932 -1.00000000   -0.425830214254   -0.114752001731   -0.897496856110   0   0   0
      3   2   -4.419163878318    3.661761457749    1.011150117432  1.00000000  1.90985932 -1.00000000    0.614796915733   -0.346286520155    0.708597486846   0   0   0
      4   1    2.080725777960   -4.794155057042    4.699098521620  1.00000000  1.90985932  1.00000000    0.104181816474   -0.001978815998    0.994556299766   0   0   0
      5   2    3.324426408004   -2.876608893217   -3.181750327929  1.00000000  1.90985932 -1.00000000   -0.463362075177   -0.167283469516    0.870236650638   0   0   0

Velocities

      1   -0.031484259773   -0.127113635494   -0.378001451200   -0.000000000000    0.000000000000g    0.000000000000
      2   -0.139148653294    0.207394363892   -0.003393425909    0.000000000000    0.000000000000g    0.000000000000
      3   -0.654562062780    0.111434041917    0.595446707134   -0.000000000000    0.000000000000g    0.000000000000
      4    0.433038091493    0.123358244229   -0.065509066358   -0.000000000000    0.000000000000g    0.000000000000
      5    0.392156884354   -0.315073014543   -0.148542763667   -0.000000000000    0.000000000000g    0.000000000000
