LAMMPS data file. Step 4999

5 atoms
2 atom types

-5.00000000     5.00000000      xlo xhi
-5.00000000     5.00000000      ylo yhi
-5.00000000     5.00000000      zlo zhi

Masses

1 1.00000000     
2 1.00000000     

Atoms # hybrid

      1   1   -2.313657886404   -4.593474609376   -0.226858490985  1.00000000  1.90985932  1.00000000   -0.347819757637    0.852213220465   -0.390837617255   0   0   0
      2   2    2.539547648434    3.052857030443    1.487816874432  1.00000000  1.90985932 -1.00000000   -0.837401488094   -0.413050858491   -0.357977284248   0   0   0
      3   1    3.618617507122    3.325417396195    1.920373313716  1.00000000  1.90985932  1.00000000   -0.889745381880    0.235806324919   -0.390830567575   0   0   0
      4   2   -2.786530184968   -3.762797941414   -0.663090152028  1.00000000  1.90985932 -1.00000000   -0.383430067933    0.913804224567   -0.133952313041   0   0   0
      5   2   -4.481540324154   -1.574694288112   -0.240728751344  1.00000000  1.90985932 -1.00000000    0.572167972291    0.243088927428    0.783282570243   0   0   0

Velocities

      1    0.064428974372   -0.441296512004    0.449915033245    0.759178897618    0.350652508693g    0.088971178795
      2    1.066015979461    0.162356996997    0.395336843474    0.739279584851    0.372157673078g   -2.158779075756
      3   -1.047128052755    0.035325208919   -0.507399682299   -0.328934206198    0.397403406069g    0.988607237145
      4   -0.057871658553    0.409784351686   -0.309265653690    1.202959088735    0.516886595661g    0.082734440117
      5   -0.025445242526   -0.166170045599   -0.028586540730   -0.154306145125   -0.177916238540g    0.167932374298
