LAMMPS data file. Step 0

5 atoms
2 atom types

-5.00000000     5.00000000      xlo xhi
-5.00000000     5.00000000      ylo yhi
-5.00000000     5.00000000      zlo zhi

Masses

1 1.00000000     
2 1.00000000     

Atoms # hybrid

      1   1   -1.917420104952   -2.905476249747   -1.119509690512  1.00000000  1.90985932  1.00000000   -0.395073733654   -0.917121164584   -0.052967107241   0   0   0
      2   2    1.068078346024    1.569467392114    0.782066652980  1.00000000  1.90985932 -1.00000000   -0.118009747901    0.716461242517    0.687573259640   0   0   0
      3   1    4.880557186241    1.910901864952    4.315196275969  1.00000000  1.90985932  1.00000000   -0.439098874684   -0.866505531318    0.237403332847   0   0   0
      4   2   -3.820668051048   -4.386270701865   -1.890052979880  1.00000000  1.90985932 -1.00000000   -0.030899397050   -0.859056287805    0.510947670162   0   0   0
      5   2   -3.634110616236    0.258685282283    0.189812535233  1.00000000  1.90985932 -1.00000000   -0.188831697152   -0.753563144270    0.629670689923   0   0   0

Velocities

      1    0.453510765827   -0.353528376110    0.386914322533   -0.054106897890    0.018821858800g    0.077676303608
      2    0.131675474282    0.449077485642    0.051062857913   -0.059041624177    0.019006897768g   -0.029938908309
      3   -0.110484344739    0.346725442449   -0.517079635759   -0.628879769004    0.059307895529g   -0.946700185960
      4   -0.247130178223    0.032143510592    0.207082357415    1.812563642818   -0.430622402756g   -0.614391213450
      5   -0.227571717146   -0.474418062573   -0.127979902103   -0.045369388828    0.106120673008g    0.113394907013
