LAMMPS data file. Step 99999

4 atoms
2 atom types

-4.00000000     4.00000000      xlo xhi
-4.00000000     4.00000000      ylo yhi
-4.00000000     4.00000000      zlo zhi

Masses

1 1.00000000     
2 1.00000000     

Atoms # hybrid

      1   2    2.466730142059   -2.112225040459   -1.328635925345  1.00000000  1.90985932 -1.00000000   -0.927852915157    0.264368792370   -0.266366763238   0   0   0
      2   1    3.366906201392   -3.160117428696    1.504754939824  1.00000000  1.90985932  1.00000000   -0.293693967292   -0.501842343398    0.812160639329   0   0   0
      3   2    0.379435018892   -1.930902229113   -0.905724255436  1.00000000  1.90985932 -1.00000000   -0.367582655366   -0.944592286939   -0.012447636937   0   0   0
      4   1    3.397144236793   -2.239211314955   -0.522141677959  1.00000000  1.90985932  1.00000000   -0.599975356066    0.567311199190   -0.563947345872   0   0   0

Velocities

      1   -0.068155640902    0.603071876830    0.402462586031   -0.434008657899   -1.725145094074   -0.200394096092
      2   -0.002651694487    0.684655694016   -0.317628590458    1.858503771590    1.894226574269    1.842535055749
      3    0.248567216067    1.222404823523    0.439232850571    0.963621472204   -0.402032139733    2.052270555615
      4    0.297325935667   -0.875054396918   -0.695163373855    1.188802263427    2.433167380243    1.182931434838
