ITEM: TIMESTEP
0
ITEM: NUMBER OF ATOMS
5
ITEM: BOX BOUNDS ff ff ff
-5.00000000    5.00000000     
-5.00000000    5.00000000     
-5.00000000    5.00000000     
ITEM: ATOMS id type q x y z mux muy muz
      1   2   -1.0000      -1.195950       2.756061       4.644770       0.594921       0.117365       0.795169
      2   2   -1.0000      -2.961830       0.233881      -2.128408       0.743846      -0.221300      -0.630651
      3   1    1.0000       2.928515       0.775292       1.345443       0.908707       0.118895       0.400145
      4   2   -1.0000       2.979086      -1.040509       4.151104       0.394551      -0.200971       0.896627
      5   2   -1.0000       0.330017      -3.420122       1.958953       0.845329       0.436404      -0.308172
ITEM: TIMESTEP
100
ITEM: NUMBER OF ATOMS
5
ITEM: BOX BOUNDS ff ff ff
-5.00000000    5.00000000     
-5.00000000    5.00000000     
-5.00000000    5.00000000     
ITEM: ATOMS id type q x y z mux muy muz
      1   2   -1.0000      -1.210908       2.750515       4.645281       0.596880       0.119384       0.793399
      2   2   -1.0000      -2.911342       0.292360      -2.107387       0.740772      -0.225157      -0.632899
      3   1    1.0000       2.925096       0.710531       1.307951       0.900974       0.122937       0.416092
      4   2   -1.0000       2.974182      -1.061352       4.170883       0.387977      -0.195105       0.900782
      5   2   -1.0000       0.302811      -3.387454       1.955134       0.822525       0.379989      -0.423156
ITEM: TIMESTEP
200
ITEM: NUMBER OF ATOMS
5
ITEM: BOX BOUNDS ff ff ff
-5.00000000    5.00000000     
-5.00000000    5.00000000     
-5.00000000    5.00000000     
ITEM: ATOMS id type q x y z mux muy muz
      1   2   -1.0000      -1.225899       2.745402       4.646026       0.600653       0.117486       0.790830
      2   2   -1.0000      -2.860874       0.351141      -2.086719       0.739380      -0.231741      -0.632150
      3   1    1.0000       2.920599       0.644441       1.271553       0.884345       0.118295       0.451598
      4   2   -1.0000       2.970584      -1.081132       4.189710       0.368025      -0.194622       0.909219
      5   2   -1.0000       0.275430      -3.355250       1.951291       0.785301       0.322596      -0.528426
ITEM: TIMESTEP
300
ITEM: NUMBER OF ATOMS
5
ITEM: BOX BOUNDS ff ff ff
-5.00000000    5.00000000     
-5.00000000    5.00000000     
-5.00000000    5.00000000     
ITEM: ATOMS id type q x y z mux muy muz
      1   2   -1.0000      -1.240922       2.740725       4.647010       0.606700       0.110600       0.787199
      2   2   -1.0000      -2.810439       0.410200      -2.066421       0.740101      -0.241686      -0.627565
      3   1    1.0000       2.915030       0.577051       1.236316       0.853660       0.102532       0.510639
      4   2   -1.0000       2.968311      -1.099828       4.207542       0.331224      -0.200694       0.921961
      5   2   -1.0000       0.247858      -3.323547       1.947414       0.736422       0.266576      -0.621788
ITEM: TIMESTEP
400
ITEM: NUMBER OF ATOMS
5
ITEM: BOX BOUNDS ff ff ff
-5.00000000    5.00000000     
-5.00000000    5.00000000     
-5.00000000    5.00000000     
ITEM: ATOMS id type q x y z mux muy muz
      1   2   -1.0000      -1.255972       2.736484       4.648238       0.615356       0.097678       0.782174
      2   2   -1.0000      -2.760048       0.469515      -2.046506       0.743307      -0.255499      -0.618236
      3   1    1.0000       2.908406       0.508375       1.202335       0.800605       0.072823       0.594751
      4   2   -1.0000       2.967367      -1.117404       4.224306       0.274315      -0.214142       0.937494
      5   2   -1.0000       0.220087      -3.292368       1.943490       0.679581       0.214422      -0.701565
ITEM: TIMESTEP
500
ITEM: NUMBER OF ATOMS
5
ITEM: BOX BOUNDS ff ff ff
-5.00000000    5.00000000     
-5.00000000    5.00000000     
-5.00000000    5.00000000     
ITEM: ATOMS id type q x y z mux muy muz
      1   2   -1.0000      -1.271044       2.732673       4.649714       0.626602       0.078084       0.775418
      2   2   -1.0000      -2.709713       0.529062      -2.026986       0.749122      -0.273257      -0.603446
      3   1    1.0000       2.900752       0.438413       1.169735       0.714441       0.027102       0.699170
      4   2   -1.0000       2.967728      -1.133818       4.239894       0.195895      -0.234781       0.952104
      5   2   -1.0000       0.192117      -3.261728       1.939505       0.619320       0.168567      -0.766830
ITEM: TIMESTEP
600
ITEM: NUMBER OF ATOMS
5
ITEM: BOX BOUNDS ff ff ff
-5.00000000    5.00000000     
-5.00000000    5.00000000     
-5.00000000    5.00000000     
ITEM: ATOMS id type q x y z mux muy muz
      1   2   -1.0000      -1.286132       2.729281       4.651442       0.639907       0.052015       0.766690
      2   2   -1.0000      -2.659445       0.588815      -2.007866       0.757253      -0.294378      -0.583017
      3   1    1.0000       2.892114       0.367159       1.138667       0.585748      -0.034043       0.809778
      4   2   -1.0000       2.969339      -1.149031       4.254171       0.098165      -0.260923       0.960356
      5   2   -1.0000       0.163962      -3.231623       1.935447       0.560206       0.130742      -0.817971
ITEM: TIMESTEP
700
ITEM: NUMBER OF ATOMS
5
ITEM: BOX BOUNDS ff ff ff
-5.00000000    5.00000000     
-5.00000000    5.00000000     
-5.00000000    5.00000000     
ITEM: ATOMS id type q x y z mux muy muz
      1   2   -1.0000      -1.301225       2.726288       4.653421       0.654371       0.020471       0.755896
      2   2   -1.0000      -2.609249       0.648749      -1.989148       0.767027      -0.317792      -0.557384
      3   1    1.0000       2.882563       0.294620       1.109301       0.411789      -0.106173       0.905073
      4   2   -1.0000       2.972099      -1.163022       4.266984      -0.013122      -0.289734       0.957017
      5   2   -1.0000       0.135651      -3.202033       1.931304       0.505496       0.101349      -0.856856
ITEM: TIMESTEP
800
ITEM: NUMBER OF ATOMS
5
ITEM: BOX BOUNDS ff ff ff
-5.00000000    5.00000000     
-5.00000000    5.00000000     
-5.00000000    5.00000000     
ITEM: ATOMS id type q x y z mux muy muz
      1   2   -1.0000      -1.316317       2.723675       4.655652       0.669091      -0.015283       0.743023
      2   2   -1.0000      -2.559130       0.708837      -1.970834       0.777660      -0.342409      -0.527258
      3   1    1.0000       2.872198       0.220823       1.081795       0.199193      -0.181792       0.962951
      4   2   -1.0000       2.975866      -1.175810       4.278188      -0.130825      -0.318267       0.938931
      5   2   -1.0000       0.107222      -3.172924       1.927061       0.456448       0.079517      -0.886189
ITEM: TIMESTEP
900
ITEM: NUMBER OF ATOMS
5
ITEM: BOX BOUNDS ff ff ff
-5.00000000    5.00000000     
-5.00000000    5.00000000     
-5.00000000    5.00000000     
ITEM: ATOMS id type q x y z mux muy muz
      1   2   -1.0000      -1.331399       2.721417       4.658128       0.683398      -0.054234       0.728029
      2   2   -1.0000      -2.509084       0.769056      -1.952919       0.788473      -0.367450      -0.493245
      3   1    1.0000       2.861135       0.145836       1.056271      -0.037592      -0.252326       0.966912
      4   2   -1.0000       2.980466      -1.187457       4.287684      -0.248614      -0.344237       0.905369
      5   2   -1.0000       0.078721      -3.144251       1.922698       0.412736       0.063723      -0.908619
ITEM: TIMESTEP
1000
ITEM: NUMBER OF ATOMS
5
ITEM: BOX BOUNDS ff ff ff
-5.00000000    5.00000000     
-5.00000000    5.00000000     
-5.00000000    5.00000000     
ITEM: ATOMS id type q x y z mux muy muz
      1   2   -1.0000      -1.346469       2.719492       4.660843       0.696871      -0.095796       0.710770
      2   2   -1.0000      -2.459104       0.829382      -1.935398       0.798947      -0.392492      -0.455669
      3   1    1.0000       2.849502       0.069765       1.032791      -0.279765      -0.309834       0.908699
      4   2   -1.0000       2.985711      -1.198076       4.295438      -0.361839      -0.366183       0.857311
      5   2   -1.0000       0.050199      -3.115962       1.918189       0.373251       0.052367      -0.926251
ITEM: TIMESTEP
1100
ITEM: NUMBER OF ATOMS
5
ITEM: BOX BOUNDS ff ff ff
-5.00000000    5.00000000     
-5.00000000    5.00000000     
-5.00000000    5.00000000     
ITEM: ATOMS id type q x y z mux muy muz
      1   2   -1.0000      -1.361526       2.717878       4.663789       0.709241      -0.139746       0.690976
      2   2   -1.0000      -2.409176       0.889796      -1.918268       0.808670      -0.417350      -0.414575
      3   1    1.0000       2.837416      -0.007253       1.011346      -0.507487      -0.348023       0.788250
      4   2   -1.0000       2.991421      -1.207817       4.301494      -0.467476      -0.383293       0.796588
      5   2   -1.0000       0.021703      -3.088004       1.913501       0.336681       0.044048      -0.940588
ITEM: TIMESTEP
1200
ITEM: NUMBER OF ATOMS
5
ITEM: BOX BOUNDS ff ff ff
-5.00000000    5.00000000     
-5.00000000    5.00000000     
-5.00000000    5.00000000     
ITEM: ATOMS id type q x y z mux muy muz
      1   2   -1.0000      -1.376575       2.716556       4.666959       0.720285      -0.186081       0.668254
      2   2   -1.0000      -2.359281       0.950283      -1.901523       0.817266      -0.441954      -0.369802
      3   1    1.0000       2.824978      -0.085062       0.991853      -0.702382      -0.362726       0.612445
      4   2   -1.0000       2.997442      -1.216849       4.305977      -0.563755      -0.395185       0.725265
      5   2   -1.0000      -0.006726      -3.060327       1.908596       0.301787       0.037641      -0.952632
ITEM: TIMESTEP
1300
ITEM: NUMBER OF ATOMS
5
ITEM: BOX BOUNDS ff ff ff
-5.00000000    5.00000000     
-5.00000000    5.00000000     
-5.00000000    5.00000000     
ITEM: ATOMS id type q x y z mux muy muz
      1   2   -1.0000      -1.391624       2.715512       4.670343       0.729742      -0.234884       0.642110
      2   2   -1.0000      -2.309398       1.010832      -1.885158       0.824335      -0.466251      -0.321064
      3   1    1.0000       2.812255      -0.163505       0.974171      -0.849265      -0.352041       0.393467
      4   2   -1.0000       3.003660      -1.225349       4.309075      -0.649772      -0.401726       0.645300
      5   2   -1.0000      -0.035055      -3.032888       1.903431       0.267510       0.032288      -0.963014
ITEM: TIMESTEP
1400
ITEM: NUMBER OF ATOMS
5
ITEM: BOX BOUNDS ff ff ff
-5.00000000    5.00000000     
-5.00000000    5.00000000     
-5.00000000    5.00000000     
ITEM: ATOMS id type q x y z mux muy muz
      1   2   -1.0000      -1.406684       2.714735       4.673936       0.737266      -0.286195       0.611989
      2   2   -1.0000      -2.259507       1.071433      -1.869171       0.829413      -0.490133      -0.268039
      3   1    1.0000       2.799283      -0.242437       0.958113      -0.937206      -0.316251       0.147074
      4   2   -1.0000       3.010009      -1.233476       4.311020      -0.725164      -0.402916       0.558387
      5   2   -1.0000      -0.063262      -3.005655       1.897964       0.233002       0.027376      -0.972091
ITEM: TIMESTEP
1500
ITEM: NUMBER OF ATOMS
5
ITEM: BOX BOUNDS ff ff ff
-5.00000000    5.00000000     
-5.00000000    5.00000000     
-5.00000000    5.00000000     
ITEM: ATOMS id type q x y z mux muy muz
      1   2   -1.0000      -1.421767       2.714218       4.677731       0.742401      -0.339899       0.577330
      2   2   -1.0000      -2.209590       1.132081      -1.853561       0.831952      -0.513386      -0.210452
      3   1    1.0000       2.786063      -0.321731       0.943477      -0.960076      -0.257605      -0.109054
      4   2   -1.0000       3.016470      -1.241363       4.312060      -0.789835      -0.398818       0.465945
      5   2   -1.0000      -0.091338      -2.978604       1.892155       0.197645       0.022513      -0.980015
ITEM: TIMESTEP
1600
ITEM: NUMBER OF ATOMS
5
ITEM: BOX BOUNDS ff ff ff
-5.00000000    5.00000000     
-5.00000000    5.00000000     
-5.00000000    5.00000000     
ITEM: ATOMS id type q x y z mux muy muz
      1   2   -1.0000      -1.436884       2.713957       4.681723       0.744584      -0.395644       0.537644
      2   2   -1.0000      -2.159633       1.192769      -1.838326       0.831328      -0.535670      -0.148161
      3   1    1.0000       2.772569      -0.401289       0.930062      -0.916659      -0.179991      -0.356848
      4   2   -1.0000       3.023066      -1.249109       4.312435      -0.843769      -0.389536       0.369210
      5   2   -1.0000      -0.119279      -2.951725       1.885968       0.161048       0.017512      -0.986791
ITEM: TIMESTEP
1700
ITEM: NUMBER OF ATOMS
5
ITEM: BOX BOUNDS ff ff ff
-5.00000000    5.00000000     
-5.00000000    5.00000000     
-5.00000000    5.00000000     
ITEM: ATOMS id type q x y z mux muy muz
      1   2   -1.0000      -1.452048       2.713950       4.685909       0.743189      -0.452790       0.492597
      2   2   -1.0000      -2.109630       1.253487      -1.823467       0.826862      -0.556508      -0.081229
      3   1    1.0000       2.758760      -0.481037       0.917692      -0.810379      -0.088549      -0.579176
      4   2   -1.0000       3.029850      -1.256778       4.312351      -0.886926      -0.375232       0.269378
      5   2   -1.0000      -0.147093      -2.925020       1.879377       0.123057       0.012374      -0.992322
ITEM: TIMESTEP
1800
ITEM: NUMBER OF ATOMS
5
ITEM: BOX BOUNDS ff ff ff
-5.00000000    5.00000000     
-5.00000000    5.00000000     
-5.00000000    5.00000000     
ITEM: ATOMS id type q x y z mux muy muz
      1   2   -1.0000      -1.467266       2.714197       4.690286       0.737590      -0.510412       0.442087
      2   2   -1.0000      -2.059581       1.314225      -1.808983       0.817869      -0.575318      -0.009976
      3   1    1.0000       2.744584      -0.560922       0.906229      -0.648763       0.010742      -0.760915
      4   2   -1.0000       3.036895      -1.264400       4.311965      -0.919234      -0.356175       0.167777
      5   2   -1.0000      -0.174793      -2.898499       1.872365       0.083734       0.007264      -0.996462
ITEM: TIMESTEP
1900
ITEM: NUMBER OF ATOMS
5
ITEM: BOX BOUNDS ff ff ff
-5.00000000    5.00000000     
-5.00000000    5.00000000     
-5.00000000    5.00000000     
ITEM: ATOMS id type q x y z mux muy muz
      1   2   -1.0000      -1.482545       2.714699       4.694853       0.727239      -0.567358       0.386300
      2   2   -1.0000      -2.009491       1.374973      -1.794876       0.803720      -0.591446       0.065004
      3   1    1.0000       2.729996      -0.640910       0.895580      -0.442723       0.111453      -0.889705
      4   2   -1.0000       3.044276      -1.271981       4.311377      -0.940686      -0.332796       0.065999
      5   2   -1.0000      -0.202396      -2.872180       1.864928       0.043333       0.002470      -0.999058
ITEM: TIMESTEP
2000
ITEM: NUMBER OF ATOMS
5
ITEM: BOX BOUNDS ff ff ff
-5.00000000    5.00000000     
-5.00000000    5.00000000     
-5.00000000    5.00000000     
ITEM: ATOMS id type q x y z mux muy muz
      1   2   -1.0000      -1.497890       2.715457       4.699608       0.711746      -0.622350       0.325726
      2   2   -1.0000      -1.959369       1.435720      -1.781141       0.783900      -0.604230       0.142851
      3   1    1.0000       2.714962      -0.720977       0.885693      -0.205815       0.207039      -0.956439
      4   2   -1.0000       3.052058      -1.279513       4.310629      -0.951506      -0.305738      -0.034051
      5   2   -1.0000      -0.229922      -2.846085       1.857073       0.002250      -0.001638      -0.999996
ITEM: TIMESTEP
2100
ITEM: NUMBER OF ATOMS
5
ITEM: BOX BOUNDS ff ff ff
-5.00000000    5.00000000     
-5.00000000    5.00000000     
-5.00000000    5.00000000     
ITEM: ATOMS id type q x y z mux muy muz
      1   2   -1.0000      -1.513303       2.716470       4.704550       0.690941      -0.674100       0.261132
      2   2   -1.0000      -1.909223       1.496457      -1.767774       0.758066      -0.613055       0.222486
      3   1    1.0000       2.699466      -0.801104       0.876553       0.046420       0.291115      -0.955561
      4   2   -1.0000       3.060290      -1.286984       4.309714      -0.952335      -0.275871      -0.130204
      5   2   -1.0000      -0.257392      -2.820238       1.848820      -0.039031      -0.004661      -0.999227
ITEM: TIMESTEP
2200
ITEM: NUMBER OF ATOMS
5
ITEM: BOX BOUNDS ff ff ff
-5.00000000    5.00000000     
-5.00000000    5.00000000     
-5.00000000    5.00000000     
ITEM: ATOMS id type q x y z mux muy muz
      1   2   -1.0000      -1.528786       2.717738       4.709678       0.664900      -0.721431       0.193509
      2   2   -1.0000      -1.859060       1.557181      -1.754769       0.726087      -0.617410       0.302660
      3   1    1.0000       2.683513      -0.881276       0.868167       0.297028       0.357695      -0.885341
      4   2   -1.0000       3.068994      -1.294386       4.308587      -0.944380      -0.244257      -0.220193
      5   2   -1.0000      -0.284821      -2.794656       1.840199      -0.080004      -0.006224      -0.996775
ITEM: TIMESTEP
2300
ITEM: NUMBER OF ATOMS
5
ITEM: BOX BOUNDS ff ff ff
-5.00000000    5.00000000     
-5.00000000    5.00000000     
-5.00000000    5.00000000     
ITEM: ATOMS id type q x y z mux muy muz
      1   2   -1.0000      -1.544340       2.719259       4.714994       0.633952      -0.763367       0.123998
      2   2   -1.0000      -1.808885       1.617893      -1.742115       0.688080      -0.616934       0.382018
      3   1    1.0000       2.667118      -0.961479       0.860550       0.528188       0.401467      -0.748226
      4   2   -1.0000       3.078164      -1.301718       4.307184      -0.929462      -0.212069      -0.301872
      5   2   -1.0000      -0.312218      -2.769353       1.831250      -0.120199      -0.006024      -0.992732
ITEM: TIMESTEP
2400
ITEM: NUMBER OF ATOMS
5
ITEM: BOX BOUNDS ff ff ff
-5.00000000    5.00000000     
-5.00000000    5.00000000     
-5.00000000    5.00000000     
ITEM: ATOMS id type q x y z mux muy muz
      1   2   -1.0000      -1.559968       2.721028       4.720496       0.598661      -0.799193       0.053816
      2   2   -1.0000      -1.758699       1.678597      -1.729801       0.644430      -0.611456       0.459165
      3   1    1.0000       2.650307      -1.041700       0.853718       0.721946       0.418153      -0.551309
      4   2   -1.0000       3.087775      -1.308993       4.305436      -0.909926      -0.180459      -0.373456
      5   2   -1.0000      -0.339577      -2.744329       1.822014      -0.159238      -0.003869      -0.987233
ITEM: TIMESTEP
2500
ITEM: NUMBER OF ATOMS
5
ITEM: BOX BOUNDS ff ff ff
-5.00000000    5.00000000     
-5.00000000    5.00000000     
-5.00000000    5.00000000     
ITEM: ATOMS id type q x y z mux muy muz
      1   2   -1.0000      -1.575668       2.723041       4.726185       0.559782      -0.828489      -0.015822
      2   2   -1.0000      -1.708501       1.739299      -1.717816       0.595792      -0.601012       0.532744
      3   1    1.0000       2.633100      -1.121930       0.847678       0.861313       0.405001      -0.306779
      4   2   -1.0000       3.097780      -1.316232       4.303283      -0.888415      -0.150426      -0.433695
      5   2   -1.0000      -0.366870      -2.719577       1.812532      -0.196892       0.000293      -0.980425
